! TOUCHSTONE file generated by CST MICROWAVE STUDIO
! Date and time: Sun Jun 20 22:37:24 2021
! Project name: HIPS_d_sweep.cst
! Parameters = {fmax=120; fmin=75; b=0.46; d=20.75; a=0.63; phi=0; theta=0}
! Header version: 2018
! Port assignment regex: !\s*Touchstone port\s*([0-9]+)\s*=\s*(CST MWS port|CST DS port)\s*([0-9]+|Zmin|Zmax)\s*\(\"(.*)\"\)(\s*mode\s*([0-9]+))?.*
! Touchstone port assignment:
! Touchstone port 1 = CST MWS port Zmin ("") mode 1
! Touchstone port 2 = CST MWS port Zmin ("") mode 2
! Touchstone port 3 = CST MWS port Zmax ("") mode 1
! Touchstone port 4 = CST MWS port Zmax ("") mode 2
! S-Parameters are not renormalized. Unphysical impedance of 0 will be written to the file.
# GHz S MA R 0
75                             0               0                0               0         0.128012         31.4549         0.967335        -62.9006
                               0               0                0               0         0.967581        -62.8982          0.12802         31.5644
                               0               0                0               0         0.211434          28.775        0.0524953         59.7513
                               0               0                0               0        0.0524604         59.6709          0.21153          28.779
75.045                         0               0                0               0         0.131653         30.6738         0.967048        -63.5821
                               0               0                0               0         0.967295        -63.5798         0.131658         30.7814
                               0               0                0               0         0.210316         28.1648        0.0531818         59.4299
                               0               0                0               0        0.0531468          59.352         0.210413         28.1687
75.09                          0               0                0               0         0.135186         29.9714         0.966428        -64.3156
                               0               0                0               0         0.966677        -64.3145         0.135196         30.0644
                               0               0                0               0         0.209055         27.4956        0.0537542         59.0588
                               0               0                0               0        0.0537203         58.9855         0.209153         27.4994
75.135                         0               0                0               0          0.13852         29.3336         0.965525        -65.1061
                               0               0                0               0         0.965783        -65.1071         0.138548         29.4019
                               0               0                0               0         0.207662         26.7645        0.0542047         58.6009
                               0               0                0               0        0.0541723         58.5346         0.207762         26.7683
75.18                          0               0                0               0         0.141563         28.7378         0.964403        -65.9578
                               0               0                0               0         0.964675        -65.9615         0.141632         28.7749
                               0               0                0               0         0.206151         25.9695        0.0545372         58.0178
                               0               0                0               0        0.0545056         57.9606         0.206253         25.9732
75.225                         0               0                0               0         0.144238         28.1543         0.963135        -66.8743
                               0               0                0               0         0.963429        -66.8809          0.14437         28.1582
                               0               0                0               0         0.204533         25.1094        0.0547678         57.2752
                               0               0                0               0        0.0547357         57.2284         0.204638         25.1131
75.27                          0               0                0               0         0.146483         27.5486         0.961801        -67.8581
                               0               0                0               0         0.962123        -67.8677           0.1467          27.522
                               0               0                0               0         0.202818         24.1837        0.0549223         56.3475
                               0               0                0               0        0.0548879         56.3114         0.202925         24.1875
75.315                         0               0                0               0         0.148269         26.8853         0.960484        -68.9108
                               0               0                0               0         0.960838         -68.923         0.148583         26.8345
                               0               0                0               0         0.201014         23.1925        0.0550318          55.221
                               0               0                0               0        0.0549935         55.1946         0.201123         23.1965
75.36                          0               0                0               0          0.14959         26.1315         0.959265        -70.0328
                               0               0                0               0         0.959651        -70.0471         0.150007          26.065
                               0               0                0               0         0.199123         22.1366        0.0551269         53.8941
                               0               0                0               0        0.0550836         53.8755         0.199235         22.1407
75.405                         0               0                0               0          0.15047           25.26         0.958219        -71.2235
                               0               0                0               0         0.958638        -71.2393         0.150981         25.1871
                               0               0                0               0         0.197149         21.0168        0.0552337         52.3753
                               0               0                0               0        0.0551852         52.3623         0.197262         21.0212
75.45                          0               0                0               0         0.150948         24.2515         0.957415        -72.4811
                               0               0                0               0         0.957861        -72.4977         0.151536         24.1807
                               0               0                0               0         0.195091         19.8344         0.055371         50.6803
                               0               0                0               0        0.0553179         50.6705         0.195205         19.8392
75.495                         0               0                0               0         0.151076         23.0945         0.956906        -73.8032
                               0               0                0               0         0.957374        -73.8199         0.151717         23.0326
                               0               0                0               0         0.192944         18.5909        0.0555493         48.8282
                               0               0                0               0        0.0554928         48.8193         0.193059         18.5961
75.54                          0               0                0               0         0.150905         21.7856         0.956737        -75.1866
                               0               0                0               0         0.957219        -75.2028         0.151572         21.7373
                               0               0                0               0         0.190703         17.2878        0.0557715         46.8382
                               0               0                0               0        0.0557131         46.8286         0.190819         17.2934
75.585                         0               0                0               0         0.150485         20.3279         0.956934        -76.6275
                               0               0                0               0         0.957421        -76.6426         0.151149         20.2958
                               0               0                0               0         0.188361         15.9266         0.056034         44.7282
                               0               0                0               0        0.0559757         44.7165         0.188478         15.9327
75.63                          0               0                0               0         0.149856         18.7293         0.957511        -78.1219
                               0               0                0               0         0.957993        -78.1355         0.150493         18.7142
                               0               0                0               0         0.185909         14.5091        0.0563287         42.5134
                               0               0                0               0        0.0562724         42.4988         0.186025         14.5156
75.675                         0               0                0               0         0.149051         17.0015         0.958467        -79.6656
                               0               0                0               0         0.958934        -79.6773         0.149639          17.003
                               0               0                0               0         0.183335         13.0368        0.0566441         40.2061
                               0               0                0               0        0.0565915         40.1879         0.183451         13.0438
75.72                          0               0                0               0         0.148094         15.1581         0.959787        -81.2542
                               0               0                0               0          0.96023        -81.2639         0.148616         15.1749
                               0               0                0               0         0.180629         11.5116        0.0569665         37.8162
                               0               0                0               0        0.0569191         37.7941         0.180744         11.5191
75.765                         0               0                0               0            0.147         13.2141         0.961446        -82.8836
                               0               0                0               0         0.961857        -82.8911         0.147445         13.2447
                               0               0                0               0         0.177777         9.93535         0.057281         35.3512
                               0               0                0               0        0.0572401         35.3249         0.177891         9.94334
75.81                          0               0                0               0         0.145779         11.1847         0.963407        -84.5499
                               0               0                0               0          0.96378        -84.5552          0.14614         11.2276
                               0               0                0               0         0.174767         8.30996        0.0575719         32.8176
                               0               0                0               0        0.0575385          32.787          0.17488         8.31847
75.855                         0               0                0               0         0.144437          9.0851         0.965626        -86.2491
                               0               0                0               0         0.965957        -86.2523         0.144712         9.13898
                               0               0                0               0         0.171587         6.63765        0.0578237         30.2209
                               0               0                0               0        0.0577985         30.1858         0.171698         6.64669
75.9                           0               0                0               0         0.142977         6.93007         0.968052        -87.9778
                               0               0                0               0         0.968339        -87.9789         0.143166         6.99395
                               0               0                0               0         0.168223         4.92087        0.0580209         27.5664
                               0               0                0               0        0.0580042         27.5266         0.168333         4.93047
75.945                         0               0                0               0           0.1414         4.73378         0.970631        -89.7327
                               0               0                0               0         0.970873        -89.7319         0.141508         4.80704
                               0               0                0               0         0.164664         3.16239        0.0581488         24.8596
                               0               0                0               0        0.0581407          24.815         0.164773         3.17258
75.99                          0               0                0               0         0.139706         2.50972         0.973304        -91.5106
                               0               0                0               0         0.973503        -91.5082         0.139741         2.59202
                               0               0                0               0           0.1609         1.36538        0.0581937         22.1066
                               0               0                0               0        0.0581939          22.057         0.161008         1.37619
76.035                         0               0                0               0         0.137899        0.270645         0.976012        -93.3088
                               0               0                0               0          0.97617        -93.3049         0.137868        0.361843
                               0               0                0               0         0.156922       -0.466511        0.0581433         19.3144
                               0               0                0               0        0.0581514         19.2596         0.157028       -0.455032
76.08                          0               0                0               0         0.135981        -1.97149         0.978696        -95.1247
                               0               0                0               0         0.978817        -95.1195         0.135895        -1.87142
                               0               0                0               0         0.152721        -2.32908        0.0579871         16.4907
                               0               0                0               0        0.0580023         16.4307         0.152826         -2.3169
76.125                         0               0                0               0         0.133956        -4.20548         0.981298        -96.9555
                               0               0                0               0         0.981386        -96.9492         0.133827         -4.0966
                               0               0                0               0         0.148294        -4.21752        0.0577167         13.6443
                               0               0                0               0         0.057738         13.5791         0.148397        -4.20458
76.17                          0               0                0               0         0.131831        -6.42091         0.983762         -98.799
                               0               0                0               0         0.983822        -98.7919         0.131669        -6.30339
                               0               0                0               0         0.143636        -6.12628         0.057326         10.7849
                               0               0                0               0        0.0573523         10.7146         0.143739        -6.11254
76.215                         0               0                0               0         0.129613        -8.60816         0.986034        -100.653
                               0               0                0               0         0.986074        -100.645         0.129429        -8.48238
                               0               0                0               0         0.138749        -8.04905        0.0568118         7.92291
                               0               0                0               0        0.0568419         7.84773          0.13885        -8.03447
76.26                          0               0                0               0         0.127312        -10.7584         0.988066        -102.514
                               0               0                0               0         0.988092        -102.506         0.127118         -10.625
                               0               0                0               0         0.133635        -9.97863        0.0561735         5.06916
                               0               0                0               0        0.0562062         4.98962         0.133736        -9.96316
76.305                         0               0                0               0         0.124938        -12.8634         0.989815        -104.382
                               0               0                0               0         0.989833        -104.374         0.124743        -12.7234
                               0               0                0               0           0.1283        -11.9068        0.0554132         2.23485
                               0               0                0               0        0.0554473         2.15158         0.128401        -11.8905
76.35                          0               0                0               0         0.122503         -14.916         0.991241        -106.253
                               0               0                0               0         0.991256        -106.244         0.122315        -14.7707
                               0               0                0               0         0.122755        -13.8244         0.054536        -0.56888
                               0               0                0               0        0.0545702       -0.655065         0.122856        -13.8071
76.395                         0               0                0               0         0.120019        -16.9095         0.992311        -108.125
                               0               0                0               0          0.99233        -108.117         0.119846        -16.7605
                               0               0                0               0         0.117012        -15.7208        0.0535489         -3.3312
                               0               0                0               0        0.0535824         -3.4193         0.117113        -15.7025
76.44                          0               0                0               0         0.117498        -18.8379         0.992999        -109.996
                               0               0                0               0         0.993025        -109.989         0.117346        -18.6873
                               0               0                0               0         0.111087         -17.584        0.0524613        -6.04185
                               0               0                0               0        0.0524932        -6.13072         0.111188        -17.5647
76.485                         0               0                0               0         0.114955        -20.6961         0.993282        -111.864
                               0               0                0               0          0.99332        -111.857         0.114827        -20.5459
                               0               0                0               0         0.104999        -19.4003        0.0512841         -8.6914
                               0               0                0               0        0.0513138        -8.77976           0.1051          -19.38
76.53                          0               0                0               0         0.112401        -22.4793         0.993146        -113.727
                               0               0                0               0           0.9932        -113.721         0.112301         -22.332
                               0               0                0               0        0.0987695        -21.1537        0.0500293        -11.2714
                               0               0                0               0        0.0500565        -11.3579        0.0988714        -21.1325
76.575                         0               0                0               0          0.10985        -24.1835         0.992583        -115.583
                               0               0                0               0         0.992654        -115.578         0.109778        -24.0415
                               0               0                0               0        0.0924228        -22.8254        0.0487094        -13.7745
                               0               0                0               0         0.048734        -13.8576        0.0925252        -22.8034
76.62                          0               0                0               0         0.107313        -25.8052          0.99159        -117.429
                               0               0                0               0          0.99168        -117.425          0.10727        -25.6709
                               0               0                0               0        0.0859849        -24.3931        0.0473373        -16.1946
                               0               0                0               0        0.0473593        -16.2729        0.0860878        -24.3703
76.665                         0               0                0               0         0.104803        -27.3413         0.990171        -119.264
                               0               0                0               0         0.990279        -119.262         0.104786        -27.2171
                               0               0                0               0        0.0794835        -25.8293        0.0459255        -18.5267
                               0               0                0               0        0.0459453        -18.5987        0.0795868        -25.8058
76.71                          0               0                0               0         0.102331        -28.7893         0.988334        -121.086
                               0               0                0               0         0.988461        -121.085         0.102338        -28.6772
                               0               0                0               0        0.0729475        -27.0991         0.044486        -20.7671
                               0               0                0               0        0.0445039        -20.8313        0.0730512        -27.0752
76.755                         0               0                0               0        0.0999082        -30.1471         0.986093        -122.893
                               0               0                0               0         0.986237        -122.894        0.0999347        -30.0489
                               0               0                0               0        0.0664074        -28.1575        0.0430298         -22.913
                               0               0                0               0        0.0430466         -22.968        0.0665114        -28.1335
76.8                           0               0                0               0        0.0975443        -31.4131         0.983467        -124.684
                               0               0                0               0         0.983626        -124.686        0.0975859          -31.33
                               0               0                0               0         0.059895        -28.9438        0.0415673        -24.9628
                               0               0                0               0        0.0415836        -25.0074        0.0599991        -28.9202
76.845                         0               0                0               0        0.0952494        -32.5862         0.980477        -126.457
                               0               0                0               0         0.980649         -126.46        0.0953011        -32.5188
                               0               0                0               0        0.0534443        -29.3732        0.0401074        -26.9157
                               0               0                0               0        0.0401239        -26.9486        0.0535483        -29.3508
76.89                          0               0                0               0         0.093033        -33.6657          0.97715        -128.211
                               0               0                0               0         0.977332        -128.216        0.0930894         -33.614
                               0               0                0               0        0.0470928        -29.3225        0.0386581        -28.7716
                               0               0                0               0        0.0386756        -28.7918        0.0471966        -29.3026
76.935                         0               0                0               0         0.090904        -34.6517         0.973515        -129.945
                               0               0                0               0         0.973702        -129.951        0.0909599        -34.6148
                               0               0                0               0        0.0408852        -28.6052         0.037226        -30.5312
                               0               0                0               0        0.0372455        -30.5378        0.0409886        -28.5902
76.98                          0               0                0               0        0.0888709        -35.5447         0.969601        -131.657
                               0               0                0               0         0.969791        -131.665        0.0889216         -35.521
                               0               0                0               0        0.0348798        -26.9265         0.035817        -32.1954
                               0               0                0               0        0.0358391        -32.1878        0.0349823        -26.9205
77.025                         0               0                0               0         0.086942        -36.3462          0.96544        -133.348
                               0               0                0               0          0.96563        -133.357        0.0869834        -36.3332
                               0               0                0               0        0.0291616        -23.8008        0.0344356         -33.766
                               0               0                0               0        0.0344612        -33.7434        0.0292624        -23.8117
77.07                          0               0                0               0        0.0851252        -37.0584         0.961067        -135.017
                               0               0                0               0         0.961253        -135.027        0.0851542        -37.0529
                               0               0                0               0        0.0238707        -18.4062        0.0330856        -35.2445
                               0               0                0               0        0.0331154        -35.2068        0.0239682        -18.4496
77.115                         0               0                0               0         0.083428        -37.6849         0.956515        -136.662
                               0               0                0               0         0.956693        -136.673        0.0834426        -37.6828
                               0               0                0               0        0.0192606        -9.39117          0.03177        -36.6333
                               0               0                0               0        0.0318047        -36.5802        0.0193514        -9.49641
77.16                          0               0                0               0        0.0818575        -38.2301         0.951816        -138.285
                               0               0                0               0         0.951984        -138.297        0.0818571        -38.2271
                               0               0                0               0        0.0157961         4.99803         0.030491        -37.9343
                               0               0                0               0        0.0305312         -37.866         0.015872         4.78819
77.205                         0               0                0               0        0.0804201        -38.6999         0.947005        -139.885