! TOUCHSTONE file generated by CST MICROWAVE STUDIO
! Date and time: Sun Jun 20 22:37:37 2021
! Project name: HIPS_d_sweep.cst
! Parameters = {fmax=120; fmin=75; b=0.46; d=21.95; a=0.63; phi=0; theta=0}
! Header version: 2018
! Port assignment regex: !\s*Touchstone port\s*([0-9]+)\s*=\s*(CST MWS port|CST DS port)\s*([0-9]+|Zmin|Zmax)\s*\(\"(.*)\"\)(\s*mode\s*([0-9]+))?.*
! Touchstone port assignment:
! Touchstone port 1 = CST MWS port Zmin ("") mode 1
! Touchstone port 2 = CST MWS port Zmin ("") mode 2
! Touchstone port 3 = CST MWS port Zmax ("") mode 1
! Touchstone port 4 = CST MWS port Zmax ("") mode 2
! S-Parameters are not renormalized. Unphysical impedance of 0 will be written to the file.
# GHz S MA R 0
75                             0               0                0               0          0.04376        -104.287         0.978451         160.041
                               0               0                0               0         0.978716         160.065        0.0437529        -104.342
                               0               0                0               0          0.20005         70.4281        0.0229097          92.983
                               0               0                0               0        0.0230863         92.8766         0.200045         70.4054
75.045                         0               0                0               0        0.0475268        -105.457         0.978151         159.327
                               0               0                0               0         0.978419         159.352        0.0475162        -105.504
                               0               0                0               0         0.200698         69.7373        0.0231796         94.1855
                               0               0                0               0        0.0233522         94.0687         0.200692         69.7146
75.09                          0               0                0               0        0.0509208         -106.56         0.977798         158.541
                               0               0                0               0          0.97806         158.567        0.0509039        -106.604
                               0               0                0               0         0.201471         68.9712        0.0235235         95.0166
                               0               0                0               0        0.0237023            94.9         0.201465         68.9486
75.135                         0               0                0               0        0.0539339        -107.632         0.977414         157.684
                               0               0                0               0         0.977662         157.711         0.053909        -107.677
                               0               0                0               0         0.202365         68.1316        0.0239376         95.4746
                               0               0                0               0        0.0241267         95.3651          0.20236         68.1088
75.18                          0               0                0               0        0.0565636        -108.699         0.977015         156.755
                               0               0                0               0         0.977243         156.784        0.0565299        -108.743
                               0               0                0               0         0.203373         67.2199        0.0244169         95.5661
                               0               0                0               0         0.024616         95.4684         0.203369         67.1971
75.225                         0               0                0               0        0.0588127        -109.776         0.976616         155.756
                               0               0                0               0         0.976817         155.787        0.0587694        -109.818
                               0               0                0               0         0.204485         66.2378        0.0249555         95.3041
                               0               0                0               0        0.0251611         95.2215         0.204482          66.215
75.27                          0               0                0               0        0.0606876        -110.871         0.976225         154.689
                               0               0                0               0         0.976395         154.721        0.0606343         -110.91
                               0               0                0               0         0.205688         65.1869        0.0255469          94.707
                               0               0                0               0        0.0257535          94.642         0.205685         65.1641
75.315                         0               0                0               0        0.0621985         -111.99          0.97585         153.554
                               0               0                0               0         0.975985         153.588        0.0621348        -112.025
                               0               0                0               0         0.206967         64.0686        0.0261841         93.7971
                               0               0                0               0        0.0263853         93.7515         0.206963         64.0458
75.36                          0               0                0               0        0.0633578        -113.135         0.975494         152.353
                               0               0                0               0         0.975591         152.389        0.0632835        -113.165
                               0               0                0               0         0.208306         62.8846        0.0268599         92.5992
                               0               0                0               0        0.0270493         92.5744         0.208302         62.8618
75.405                         0               0                0               0        0.0641802        -114.307         0.975157         151.089
                               0               0                0               0         0.975216         151.126         0.064095        -114.331
                               0               0                0               0         0.209686         61.6365        0.0275668         91.1393
                               0               0                0               0        0.0277389          91.136         0.209681         61.6138
75.45                          0               0                0               0        0.0646816        -115.505         0.974841         149.764
                               0               0                0               0         0.974861           149.8        0.0645857        -115.523
                               0               0                0               0         0.211088         60.3261        0.0282973         89.4441
                               0               0                0               0        0.0284477         89.4624         0.211081         60.3036
75.495                         0               0                0               0        0.0648789        -116.726         0.974542          148.38
                               0               0                0               0         0.974525         148.416        0.0647728         -116.74
                               0               0                0               0         0.212492         58.9556        0.0290439         87.5399
                               0               0                0               0        0.0291701          87.579         0.212483         58.9332
75.54                          0               0                0               0        0.0647897        -117.969          0.97426          146.94
                               0               0                0               0         0.974208         146.975        0.0646743        -117.979
                               0               0                0               0         0.213875          57.527        0.0297997         85.4522
                               0               0                0               0        0.0299005         85.5105         0.213865         57.5049
75.585                         0               0                0               0        0.0644318         -119.23         0.973993         145.446
                               0               0                0               0         0.973908          145.48        0.0643084        -119.239
                               0               0                0               0         0.215217          56.043        0.0305575         83.2051
                               0               0                0               0        0.0306338           83.28         0.215205         56.0211
75.63                          0               0                0               0        0.0638229        -120.508          0.97374         143.902
                               0               0                0               0         0.973627         143.934        0.0636935        -120.516
                               0               0                0               0         0.216496         54.5062        0.0313109         80.8211
                               0               0                0               0         0.031365         80.9094         0.216483         54.4845
75.675                         0               0                0               0        0.0629806        -121.798         0.973503          142.31
                               0               0                0               0         0.973366         142.341        0.0628475        -121.807
                               0               0                0               0         0.217692         52.9196        0.0320539          78.321
                               0               0                0               0        0.0320894         78.4186         0.217678         52.8979
75.72                          0               0                0               0         0.061922        -123.099         0.973284         140.675
                               0               0                0               0         0.973128         140.703        0.0617881        -123.111
                               0               0                0               0         0.218786         51.2862         0.032781         75.7236
                               0               0                0               0        0.0328022          75.826          0.21877         51.2646
75.765                         0               0                0               0        0.0606641        -124.408         0.973088         138.998
                               0               0                0               0         0.972918         139.023        0.0605324        -124.424
                               0               0                0               0         0.219758         49.6094        0.0334872         73.0458
                               0               0                0               0        0.0334991         73.1482         0.219742         49.5877
75.81                          0               0                0               0        0.0592233        -125.723         0.972922         137.284
                               0               0                0               0         0.972743         137.306        0.0590969        -125.743
                               0               0                0               0         0.220591         47.8925        0.0341681         70.3025
                               0               0                0               0        0.0341757         70.3999         0.220576         47.8706
75.855                         0               0                0               0        0.0576154        -127.042         0.972794         135.535
                               0               0                0               0         0.972612         135.554        0.0574978        -127.066
                               0               0                0               0         0.221271          46.139        0.0348197         67.5068
                               0               0                0               0        0.0348278         67.5945         0.221258         46.1166
75.9                           0               0                0               0        0.0558563        -128.362         0.972715         133.755
                               0               0                0               0         0.972535         133.772        0.0557502        -128.389
                               0               0                0               0         0.221784         44.3522        0.0354385         64.6701
                               0               0                0               0        0.0354513         64.7437         0.221772         44.3293
75.945                         0               0                0               0        0.0539614        -129.683         0.972697         131.947
                               0               0                0               0         0.972521         131.961        0.0538693        -129.711
                               0               0                0               0         0.222118         42.5355        0.0360214         61.8023
                               0               0                0               0        0.0360422          61.858         0.222108         42.5119
75.99                          0               0                0               0        0.0519461        -131.002          0.97275         130.114
                               0               0                0               0         0.972583         130.125        0.0518695        -131.029
                               0               0                0               0         0.222262         40.6922        0.0365656         58.9118
                               0               0                0               0        0.0365967         58.9466         0.222254         40.6677
76.035                         0               0                0               0        0.0498257        -132.317         0.972886          128.26
                               0               0                0               0          0.97273         128.268        0.0497653         -132.34
                               0               0                0               0         0.222208         38.8254        0.0370683         56.0059
                               0               0                0               0        0.0371109         56.0177         0.222201            38.8
76.08                          0               0                0               0        0.0476158        -133.627         0.973112         126.387
                               0               0                0               0         0.972969         126.393         0.047571        -133.641
                               0               0                0               0         0.221947         36.9381         0.037527         53.0907
                               0               0                0               0         0.037581         53.0788         0.221943         36.9118
76.125                         0               0                0               0         0.045332        -134.927         0.973434         124.499
                               0               0                0               0         0.973305         124.502        0.0453009        -134.929
                               0               0                0               0         0.221473         35.0334        0.0379388          50.172
                               0               0                0               0        0.0380032         50.1363          0.22147         35.0061
76.17                          0               0                0               0        0.0429904        -136.212         0.973853         122.597
                               0               0                0               0         0.973736           122.6          0.04297        -136.199
                               0               0                0               0         0.220779         33.1139         0.038301         47.2544
                               0               0                0               0        0.0383738         47.1964         0.220777         33.0857
76.215                         0               0                0               0        0.0406071        -137.475         0.974363         120.686
                               0               0                0               0         0.974258         120.687        0.0405933        -137.443
                               0               0                0               0          0.21986         31.1825        0.0386107         44.3428
                               0               0                0               0         0.038689         44.2648         0.219859         31.1535
76.26                          0               0                0               0        0.0381984        -138.703         0.974953         118.769
                               0               0                0               0         0.974857         118.769        0.0381866        -138.653
                               0               0                0               0         0.218709         29.2419        0.0388644         41.4415
                               0               0                0               0         0.038945          41.347         0.218708         29.2123
76.305                         0               0                0               0        0.0357806         -139.88         0.975604         116.847
                               0               0                0               0         0.975513         116.847        0.0357661        -139.815
                               0               0                0               0         0.217321         27.2952        0.0390588          38.555
                               0               0                0               0         0.039138         38.4484          0.21732         27.2652
76.35                          0               0                0               0          0.03337        -140.982         0.976286         114.924
                               0               0                0               0         0.976198         114.923        0.0333485        -140.908
                               0               0                0               0         0.215692         25.3452          0.03919         35.6881
                               0               0                0               0        0.0392644         35.5743          0.21569          25.315
76.395                         0               0                0               0        0.0309825        -141.975         0.976966         113.002
                               0               0                0               0         0.976875         113.001        0.0309507        -141.903
                               0               0                0               0         0.213814         23.3952        0.0392542          32.846
                               0               0                0               0        0.0393205         32.7304         0.213811         23.3651
76.44                          0               0                0               0        0.0286337        -142.813         0.977599         111.084
                               0               0                0               0         0.977503         111.083        0.0285898         -142.76
                               0               0                0               0         0.211684         21.4487        0.0392473         30.0343
                               0               0                0               0        0.0393029         29.9225         0.211679         21.4189
76.485                         0               0                0               0        0.0263393        -143.435         0.978138         109.171
                               0               0                0               0         0.978031         109.171        0.0262833        -143.421
                               0               0                0               0         0.209297         19.5095        0.0391655         27.2593
                               0               0                0               0        0.0392086         27.1569         0.209291         19.4802
76.53                          0               0                0               0        0.0241155        -143.757         0.978528         107.267
                               0               0                0               0         0.978409         107.267        0.0240487        -143.807
                               0               0                0               0         0.206651         17.5817        0.0390054         24.5281
                               0               0                0               0        0.0390348         24.4402         0.206643         17.5531
76.575                         0               0                0               0        0.0219799        -143.673         0.978715         105.372
                               0               0                0               0         0.978581         105.372        0.0219047        -143.815
                               0               0                0               0         0.203745         15.6698        0.0387641         21.8485
                               0               0                0               0        0.0387797         21.7795         0.203734          15.642
76.62                          0               0                0               0        0.0199535        -143.043         0.978644         103.487
                               0               0                0               0         0.978493         103.489        0.0198722        -143.306
                               0               0                0               0         0.200578         13.7787        0.0384395         19.2293
                               0               0                0               0        0.0384421         19.1825         0.200566         13.7517
76.665                         0               0                0               0        0.0180623        -141.696         0.978264         101.616
                               0               0                0               0         0.978095         101.618        0.0179766        -142.107
                               0               0                0               0         0.197155         11.9136        0.0380309         16.6799
                               0               0                0               0        0.0380219         16.6576         0.197141         11.8874
76.71                          0               0                0               0        0.0163411        -139.428         0.977528         99.7577
                               0               0                0               0         0.977342           99.76        0.0162507         -140.01
                               0               0                0               0         0.193482         10.0799        0.0375387         14.2105
                               0               0                0               0        0.0375202         14.2134         0.193467         10.0544
76.755                         0               0                0               0        0.0148359         -136.03           0.9764         97.9141
                               0               0                0               0         0.976198         97.9168         0.014738        -136.794
                               0               0                0               0         0.189568         8.28326        0.0369651          11.832
                               0               0                0               0        0.0369395         11.8595         0.189552         8.25834
76.8                           0               0                0               0        0.0136052        -131.345         0.974852         96.0859
                               0               0                0               0         0.974635         96.0889         0.013495        -132.279
                               0               0                0               0         0.185426         6.52956        0.0363141         9.55579
                               0               0                0               0        0.0362838         9.60548         0.185409         6.50503
76.845                         0               0                0               0        0.0127166         -125.38         0.972867         94.2739
                               0               0                0               0         0.972637         94.2772        0.0125885        -126.442
                               0               0                0               0         0.181073         4.82464        0.0355914         7.39344
                               0               0                0               0        0.0355585         7.46169         0.181056         4.80027
76.89                          0               0                0               0        0.0122333         -118.43         0.970441         92.4789
                               0               0                0               0           0.9702         92.4825        0.0120842        -119.544
                               0               0                0               0         0.176529         3.17426        0.0348045         5.35657
                               0               0                0               0        0.0347706          5.4385         0.176512         3.14982
76.935                         0               0                0               0        0.0121928        -111.119         0.967579         90.7017
                               0               0                0               0          0.96733         90.7055        0.0120245        -112.193
                               0               0                0               0         0.171815         1.58406        0.0339624         3.45645
                               0               0                0               0        0.0339285         3.54632         0.171798         1.55929
76.98                          0               0                0               0        0.0125881        -104.213         0.964299         88.9431
                               0               0                0               0         0.964043         88.9472        0.0124084        -105.179
                               0               0                0               0         0.166956       0.0593568        0.0330755         1.70371
                               0               0                0               0        0.0330419         1.79532         0.166939       0.0340356
77.025                         0               0                0               0        0.0133684        -98.3354         0.960627         87.2039
                               0               0                0               0         0.960368         87.2082        0.0131892        -99.1627
                               0               0                0               0         0.161978        -1.39486        0.0321552        0.107882
                               0               0                0               0        0.0321215        0.195068         0.161961        -1.42094
77.07                          0               0                0               0        0.0144576         -93.783         0.956598         85.4848
                               0               0                0               0         0.956338         85.4893        0.0142917        -94.4775
                               0               0                0               0         0.156908        -2.77408        0.0312134        -1.32292
                               0               0                0               0        0.0311785        -1.24582          0.15689        -2.80109
77.115                         0               0                0               0        0.0157758        -90.5643         0.952254         83.7864
                               0               0                0               0         0.951995         83.7911        0.0156344        -91.1489
                               0               0                0               0         0.151772        -4.07427        0.0302622        -2.58246
                               0               0                0               0        0.0302248        -2.52013         0.151754        -4.10235
77.16                          0               0                0               0        0.0172522        -88.5265         0.947642         82.1093
                               0               0                0               0         0.947386         82.1142        0.0171443        -89.0269
                               0               0                0               0         0.146596        -5.29194        0.0293137         -3.6667
                               0               0                0               0        0.0292719        -3.62248         0.146578        -5.32119
77.205                         0               0                0               0        0.0188293        -87.4649         0.942811         80.4539