! TOUCHSTONE file generated by CST MICROWAVE STUDIO
! Date and time: Sun Jun 20 22:36:53 2021
! Project name: HIPS_d_sweep.cst
! Parameters = {fmax=120; fmin=75; b=0.46; d=17; a=0.63; phi=0; theta=0}
! Header version: 2018
! Port assignment regex: !\s*Touchstone port\s*([0-9]+)\s*=\s*(CST MWS port|CST DS port)\s*([0-9]+|Zmin|Zmax)\s*\(\"(.*)\"\)(\s*mode\s*([0-9]+))?.*
! Touchstone port assignment:
! Touchstone port 1 = CST MWS port Zmin ("") mode 1
! Touchstone port 2 = CST MWS port Zmin ("") mode 2
! Touchstone port 3 = CST MWS port Zmax ("") mode 1
! Touchstone port 4 = CST MWS port Zmax ("") mode 2
! S-Parameters are not renormalized. Unphysical impedance of 0 will be written to the file.
# GHz S MA R 0
75                             0               0                0               0         0.379497         90.9477         0.915214         2.01249
                               0               0                0               0         0.915222         2.01474         0.379553         90.9482
                               0               0                0               0         0.117869         82.2703        0.0672365        -133.853
                               0               0                0               0        0.0671939        -133.855         0.117748         82.2238
75.045                         0               0                0               0         0.382134         90.3617          0.91429         1.44055
                               0               0                0               0         0.914265          1.4442         0.382139         90.3593
                               0               0                0               0         0.118688         81.8095          0.06745        -135.115
                               0               0                0               0        0.0674399         -135.07         0.118528         81.7455
75.09                          0               0                0               0         0.384421         89.7295         0.913285        0.808327
                               0               0                0               0         0.913248         0.81217         0.384407          89.726
                               0               0                0               0         0.119616         81.3042        0.0676261        -136.512
                               0               0                0               0        0.0676269        -136.451         0.119446         81.2336
75.135                         0               0                0               0         0.386366         89.0478         0.912258         0.11629
                               0               0                0               0         0.912226        0.119551         0.386357          89.045
                               0               0                0               0         0.120671         80.7611         0.067764         -138.05
                               0               0                0               0        0.0677617        -137.994         0.120508         80.6935
75.18                          0               0                0               0         0.387979          88.314          0.91126       -0.634622
                               0               0                0               0         0.911243       -0.632384         0.387989         88.3135
                               0               0                0               0         0.121864         80.1877        0.0678641        -139.733
                               0               0                0               0        0.0678507        -139.697          0.12172         80.1302
75.225                         0               0                0               0         0.389273         87.5266         0.910333        -1.44312
                               0               0                0               0         0.910338        -1.44208         0.389309         87.5295
                               0               0                0               0         0.123205         79.5909        0.0679275        -141.562
                               0               0                0               0        0.0679001        -141.554         0.123084         79.5477
75.27                          0               0                0               0         0.390264         86.6847         0.909511        -2.30764
                               0               0                0               0         0.909538         -2.3078         0.390324         86.6917
                               0               0                0               0         0.124698          78.977        0.0679562         -143.54
                               0               0                0               0        0.0679162        -143.562         0.124601          78.949
75.315                         0               0                0               0         0.390965         85.7884         0.908821        -3.22643
                               0               0                0               0         0.908866        -3.22765         0.391044         85.7996
                               0               0                0               0         0.126345         78.3505        0.0679534        -145.668
                               0               0                0               0        0.0679049        -145.718         0.126269         78.3356
75.36                          0               0                0               0         0.391391         84.8385         0.908279        -4.19764
                               0               0                0               0         0.908334        -4.19968         0.391481         84.8535
                               0               0                0               0         0.128146          77.714        0.0679233        -147.946
                               0               0                0               0        0.0678721        -148.016         0.128084         77.7077
75.405                         0               0                0               0         0.391556         83.8365         0.907894        -5.21931
                               0               0                0               0          0.90795         -5.2219         0.391646         83.8547
                               0               0                0               0         0.130097         77.0676        0.0678708        -150.372
                               0               0                0               0        0.0678235        -150.452         0.130041         77.0643
75.45                          0               0                0               0         0.391474         82.7844         0.907666         -6.2895
                               0               0                0               0         0.907712         -6.2923         0.391551         82.8047
                               0               0                0               0         0.132194         76.4095         0.067802        -152.942
                               0               0                0               0        0.0677647        -153.022         0.132133         76.4031
75.495                         0               0                0               0         0.391154         81.6847         0.907591        -7.40624
                               0               0                0               0         0.907615        -7.40893         0.391211         81.7061
                               0               0                0               0         0.134429         75.7358        0.0677236        -155.652
                               0               0                0               0        0.0677015        -155.719         0.134354         75.7208
75.54                          0               0                0               0         0.390609         80.5405         0.907655        -8.56759
                               0               0                0               0         0.907647        -8.56985         0.390637         80.5618
                               0               0                0               0         0.136792         75.0408        0.0676425        -158.495
                               0               0                0               0        0.0676391        -158.538         0.136691         75.0134
75.585                         0               0                0               0         0.389849         79.3549          0.90784        -9.77162
                               0               0                0               0         0.907791        -9.77313         0.389842         79.3752
                               0               0                0               0         0.139271         74.3182        0.0675663        -161.462
                               0               0                0               0        0.0675831        -161.473         0.139134         74.2767
75.63                          0               0                0               0         0.388881         78.1315         0.908123        -11.0164
                               0               0                0               0         0.908027        -11.0169         0.388839           78.15
                               0               0                0               0         0.141848          73.561        0.0675022        -164.545
                               0               0                0               0        0.0675387        -164.518         0.141667         73.5064
75.675                         0               0                0               0         0.387717         76.8738         0.908476        -12.2999
                               0               0                0               0         0.908333        -12.2991          0.38764         76.8901
                               0               0                0               0         0.144502         72.7633        0.0674574        -167.732
                               0               0                0               0        0.0675109        -167.665         0.144274         72.6987
75.72                          0               0                0               0         0.386364         75.5855          0.90887        -13.6201
                               0               0                0               0         0.908683         -13.618         0.386258         75.5996
                               0               0                0               0         0.147207         71.9205        0.0674381         -171.01
                               0               0                0               0        0.0675047        -170.906         0.146937         71.8506
75.765                         0               0                0               0         0.384834         74.2701         0.909274        -14.9747
                               0               0                0               0          0.90905        -14.9713         0.384705         74.2823
                               0               0                0               0         0.149936         71.0305          0.06745        -174.368
                               0               0                0               0        0.0675247        -174.234         0.149634         70.9603
75.81                          0               0                0               0         0.383135         72.9312         0.909658        -16.3613
                               0               0                0               0          0.90941        -16.3569         0.382997         72.9422
                               0               0                0               0         0.152664         70.0935        0.0674977        -177.793
                               0               0                0               0        0.0675754        -177.639         0.152346         70.0274
75.855                         0               0                0               0         0.381282          71.572         0.909996        -17.7773
                               0               0                0               0          0.90974        -17.7723         0.381145         71.5828
                               0               0                0               0         0.155366         69.1119        0.0675843         178.729
                               0               0                0               0        0.0676605         178.887         0.155053         69.0527
75.9                           0               0                0               0         0.379287         70.1955         0.910267        -19.2197
                               0               0                0               0         0.910022        -19.2147         0.379166         70.2072
                               0               0                0               0         0.158025         68.0898        0.0677119         175.211
                               0               0                0               0        0.0677837         175.356         0.157738         68.0383
75.945                         0               0                0               0         0.377167         68.8045         0.910463        -20.6853
                               0               0                0               0         0.910246        -20.6812         0.377074         68.8183
                               0               0                0               0         0.160631         67.0317         0.067881         171.662
                               0               0                0               0        0.0679476         171.777         0.160385         66.9873
75.99                          0               0                0               0          0.37494         67.4012         0.910587        -22.1707
                               0               0                0               0         0.910411        -22.1686         0.374885         67.4182
                               0               0                0               0          0.16318         65.9422        0.0680908         168.095
                               0               0                0               0        0.0681543         168.161         0.162985         65.9034
76.035                         0               0                0               0         0.372627         65.9874         0.910657        -23.6725
                               0               0                0               0         0.910529        -23.6731         0.372617         66.0084
                               0               0                0               0         0.165674         64.8252        0.0683399         164.516
                               0               0                0               0        0.0684052         164.519         0.165532         64.7904
76.08                          0               0                0               0         0.370251         64.5647         0.910706        -25.1873
                               0               0                0               0         0.910625        -25.1913         0.370287         64.5901
                               0               0                0               0         0.168117         63.6841        0.0686259         160.933
                               0               0                0               0        0.0687005         160.865         0.168022         63.6519
76.125                         0               0                0               0         0.367837          63.134          0.91078        -26.7122
                               0               0                0               0         0.910735        -26.7195         0.367915         63.1637
                               0               0                0               0         0.170515         62.5218        0.0689467          157.35
                               0               0                0               0        0.0690394         157.209         0.170455         62.4914
76.17                          0               0                0               0          0.36541         61.6962         0.910928        -28.2443
                               0               0                0               0         0.910904        -28.2543          0.36552         61.7295
                               0               0                0               0         0.172872         61.3411        0.0693013         153.769
                               0               0                0               0        0.0694202         153.564         0.172832         61.3122
76.215                         0               0                0               0         0.362998         60.2522         0.911199        -29.7814
                               0               0                0               0         0.911178        -29.7929         0.363123         60.2876
                               0               0                0               0         0.175189          60.145        0.0696907         150.192
                               0               0                0               0          0.06984         149.943         0.175151         60.1173
76.26                          0               0                0               0         0.360623         58.8027         0.911627        -31.3215
                               0               0                0               0         0.911593        -31.3329         0.360747         58.8382
                               0               0                0               0          0.17746         58.9364        0.0701194          146.62
                               0               0                0               0        0.0702955         146.356          0.17741         58.9094
76.305                         0               0                0               0         0.358307          57.349         0.912225        -32.8624
                               0               0                0               0         0.912167        -32.8722         0.358411         57.3824
                               0               0                0               0         0.179672         57.7183         0.070595         143.058
                               0               0                0               0        0.0707828         142.817           0.1796         57.6911
76.35                          0               0                0               0         0.356064         55.8932         0.912979        -34.4021
                               0               0                0               0         0.912891        -34.4091         0.356134         55.9223
                               0               0                0               0         0.181808         56.4931        0.0711262         139.516
                               0               0                0               0        0.0712993         139.337          0.18171         56.4648
76.395                         0               0                0               0           0.3539         54.4379         0.913843        -35.9381
                               0               0                0               0         0.913726         -35.942         0.353929         54.4613
                               0               0                0               0         0.183844         55.2622        0.0717177         136.011
                               0               0                0               0        0.0718451         135.926          0.18372          55.232
76.44                          0               0                0               0         0.351813          52.987         0.914747        -37.4683
                               0               0                0               0         0.914607        -37.4694         0.351802         53.0043
                               0               0                0               0         0.185755         54.0261        0.0723636         132.563
                               0               0                0               0        0.0724248          132.59         0.185612         53.9938
76.485                         0               0                0               0          0.34979         51.5448         0.915604        -38.9905
                               0               0                0               0         0.915449        -38.9896          0.34975         51.5568
                               0               0                0               0         0.187518         52.7845         0.073045         129.192
                               0               0                0               0        0.0730471         129.324         0.187363         52.7505
76.53                          0               0                0               0         0.347814         50.1165         0.916318        -40.5031
                               0               0                0               0         0.916158        -40.5013         0.347758         50.1253
                               0               0                0               0          0.18911         51.5368        0.0737332          125.91
                               0               0                0               0         0.073714         126.109         0.188951          51.502
76.575                         0               0                0               0          0.34586         48.7073           0.9168        -42.0048
                               0               0                0               0         0.916642        -42.0033         0.345806         48.7157
                               0               0                0               0         0.190515         50.2825        0.0743978         122.716
                               0               0                0               0        0.0743999         122.918         0.190358         50.2478
76.62                          0               0                0               0         0.343907         47.3223         0.916971        -43.4951
                               0               0                0               0         0.916824        -43.4946         0.343869          47.333
                               0               0                0               0         0.191721         49.0217         0.075014         119.607
                               0               0                0               0        0.0750471          119.74         0.191569          48.988
76.665                         0               0                0               0         0.341933          45.966         0.916775        -44.9737
                               0               0                0               0         0.916641        -44.9746         0.341923         45.9812
                               0               0                0               0         0.192718         47.7554         0.075566         116.573
                               0               0                0               0        0.0756044         116.599         0.192575         47.7233
76.71                          0               0                0               0         0.339926          44.642         0.916172        -46.4403
                               0               0                0               0         0.916053        -46.4427         0.339949         44.6625
                               0               0                0               0         0.193503         46.4851        0.0760457         113.606
                               0               0                0               0        0.0760583         113.527         0.193368         46.4548
76.755                         0               0                0               0          0.33788         43.3527         0.915147         -47.895
                               0               0                0               0         0.915041        -47.8986         0.337937         43.3785
                               0               0                0               0         0.194074         45.2133        0.0764505         110.701
                               0               0                0               0        0.0764215         110.541         0.193946         45.1848
76.8                           0               0                0               0         0.335796         42.0996           0.9137        -49.3373
                               0               0                0               0         0.913604        -49.3416         0.335884         42.1294
                               0               0                0               0         0.194434         43.9431        0.0767816         107.856
                               0               0                0               0        0.0767107         107.647         0.194311         43.9161
76.845                         0               0                0               0         0.333682         40.8831         0.911847        -50.7669
                               0               0                0               0         0.911758        -50.7714         0.333794         40.9149
                               0               0                0               0         0.194586         42.6777         0.077042         105.069
                               0               0                0               0        0.0769375          104.84         0.194467         42.6518
76.89                          0               0                0               0         0.331553         39.7026         0.909614        -52.1831
                               0               0                0               0         0.909527        -52.1873         0.331679         39.7343
                               0               0                0               0         0.194537         41.4209        0.0772359         102.341
                               0               0                0               0         0.077109         102.114         0.194419         41.3955
76.935                         0               0                0               0         0.329423         38.5568         0.907033        -53.5853
                               0               0                0               0         0.906945        -53.5887         0.329555         38.5863
                               0               0                0               0         0.194296         40.1761        0.0773683         99.6741
                               0               0                0               0          0.07723          99.465         0.194177         40.1509
76.98                          0               0                0               0         0.327311         37.4439         0.904142        -54.9725
                               0               0                0               0         0.904051        -54.9749         0.327438         37.4694
                               0               0                0               0         0.193872         38.9469         0.077445         97.0685
                               0               0                0               0        0.0773045         96.8883         0.193752         38.9215
77.025                         0               0                0               0         0.325232         36.3616         0.900982         -56.344
                               0               0                0               0         0.900887        -56.3451         0.325348          36.382
                               0               0                0               0         0.193278         37.7364        0.0774721          94.526
                               0               0                0               0        0.0773367         94.3803         0.193154         37.7106
77.07                          0               0                0               0         0.323203         35.3074         0.897595         -57.699
                               0               0                0               0         0.897494        -57.6988         0.323302          35.322
                               0               0                0               0         0.192527         36.5474        0.0774562         92.0476
                               0               0                0               0        0.0773309         91.9382         0.192397         36.5211
77.115                         0               0                0               0         0.321238         34.2786         0.894022        -59.0369
                               0               0                0               0         0.893916        -59.0354         0.321316         34.2874
                               0               0                0               0          0.19163         35.3825        0.0774039         89.6336
                               0               0                0               0         0.077292         89.5594         0.191496         35.3555
77.16                          0               0                0               0         0.319349         33.2725         0.890303        -60.3572
                               0               0                0               0         0.890194        -60.3546         0.319405         33.2758
                               0               0                0               0         0.190603         34.2435         0.077322         87.2841
                               0               0                0               0         0.077225         87.2419         0.190463         34.2161
77.205                         0               0                0               0         0.317546         32.2865         0.886477        -61.6595