! TOUCHSTONE file generated by CST MICROWAVE STUDIO
! Date and time: Sun Jun 20 22:37:43 2021
! Project name: HIPS_d_sweep.cst
! Parameters = {fmax=120; fmin=75; b=0.46; d=22.55; a=0.63; phi=0; theta=0}
! Header version: 2018
! Port assignment regex: !\s*Touchstone port\s*([0-9]+)\s*=\s*(CST MWS port|CST DS port)\s*([0-9]+|Zmin|Zmax)\s*\(\"(.*)\"\)(\s*mode\s*([0-9]+))?.*
! Touchstone port assignment:
! Touchstone port 1 = CST MWS port Zmin ("") mode 1
! Touchstone port 2 = CST MWS port Zmin ("") mode 2
! Touchstone port 3 = CST MWS port Zmax ("") mode 1
! Touchstone port 4 = CST MWS port Zmax ("") mode 2
! S-Parameters are not renormalized. Unphysical impedance of 0 will be written to the file.
# GHz S MA R 0
75                             0               0                0               0        0.0126038         -148.57         0.984337          93.355
                               0               0                0               0         0.984639         93.3542        0.0126298        -147.338
                               0               0                0               0         0.171098         3.46486        0.0354122         6.95029
                               0               0                0               0         0.035412          6.9148          0.17112         3.42869
75.045                         0               0                0               0        0.0158929        -155.587         0.985116         92.5976
                               0               0                0               0          0.98554         92.5834        0.0160073        -154.675
                               0               0                0               0         0.169287         2.76261         0.035998          7.3602
                               0               0                0               0        0.0358945         7.33781          0.16929         2.70335
75.09                          0               0                0               0        0.0190779        -160.309         0.985697         91.7719
                               0               0                0               0           0.9862         91.7497        0.0192369        -159.535
                               0               0                0               0         0.167247         1.98652         0.036432         7.47154
                               0               0                0               0        0.0362842         7.45308         0.167239         1.91303
75.135                         0               0                0               0        0.0220574        -163.819         0.986127         90.8763
                               0               0                0               0          0.98667         90.8506        0.0222224        -163.124
                               0               0                0               0          0.16498         1.13556        0.0367433         7.31666
                               0               0                0               0        0.0365876         7.29887         0.164968         1.05518
75.18                          0               0                0               0         0.024769        -166.641         0.986455         89.9097
                               0               0                0               0         0.987005          89.884        0.0249114        -166.003
                               0               0                0               0         0.162488        0.209136        0.0369517         6.92378
                               0               0                0               0        0.0368091         6.90558         0.162475        0.127721
75.225                         0               0                0               0        0.0271702        -169.053         0.986723         88.8716
                               0               0                0               0         0.987253         88.8486        0.0272717        -168.463
                               0               0                0               0          0.15977       -0.792967        0.0370701         6.31671
                               0               0                0               0        0.0369511         6.29762         0.159759       -0.871003
75.27                          0               0                0               0        0.0292318        -171.213          0.98697         87.7619
                               0               0                0               0         0.987463         87.7435        0.0292833        -170.666
                               0               0                0               0         0.156824         -1.8706        0.0371063         5.51522
                               0               0                0               0        0.0370145         5.49483         0.156817        -1.94223
75.315                         0               0                0               0        0.0309345         -173.22         0.987229         86.5811
                               0               0                0               0         0.987675         86.5684        0.0309343        -172.712
                               0               0                0               0         0.153646        -3.02331        0.0370646          4.5357
                               0               0                0               0        0.0369993          4.5135         0.153644        -3.08678
75.36                          0               0                0               0        0.0322674        -175.137         0.987528         85.3302
                               0               0                0               0         0.987923         85.3235        0.0322192        -174.661
                               0               0                0               0         0.150232        -4.25031        0.0369462         3.39175
                               0               0                0               0        0.0369042         3.36723         0.150236        -4.30502
75.405                         0               0                0               0        0.0332273        -177.003         0.987884         84.0104
                               0               0                0               0         0.988233         84.0096        0.0331383        -176.556
                               0               0                0               0         0.146577        -5.55054        0.0367508         2.09482
                               0               0                0               0        0.0367274         2.06755         0.146588        -5.59689
75.45                          0               0                0               0        0.0338169        -178.848         0.988312         82.6235
                               0               0                0               0         0.988622         82.6277         0.033696        -178.424
                               0               0                0               0         0.142677        -6.92259        0.0364764        0.654734
                               0               0                0               0        0.0364665        0.624485         0.142694        -6.96182
75.495                         0               0                0               0        0.0340442          179.31         0.988817         81.1715
                               0               0                0               0         0.989099         81.1798        0.0339006         179.718
                               0               0                0               0         0.138526        -8.36476        0.0361199       -0.919819
                               0               0                0               0        0.0361187       -0.953096         0.138548        -8.39874
75.54                          0               0                0               0        0.0339216         177.459         0.989397          79.657
                               0               0                0               0         0.989664         79.6679        0.0337638         177.856
                               0               0                0               0         0.134119          -9.875        0.0356778        -2.62091
                               0               0                0               0        0.0356811        -2.65707         0.134146        -9.90599
75.585                         0               0                0               0        0.0334647          175.59         0.990047         78.0825
                               0               0                0               0         0.990308         78.0947        0.0332996         175.982
                               0               0                0               0         0.129454        -11.4509        0.0351463        -4.44101
                               0               0                0               0        0.0351506        -4.47981         0.129482        -11.4813
75.63                          0               0                0               0        0.0326916         173.697         0.990752         76.4511
                               0               0                0               0         0.991016         76.4632        0.0325241         174.089
                               0               0                0               0         0.124528        -13.0898        0.0345215        -6.37271
                               0               0                0               0        0.0345246        -6.41392         0.124555        -13.1218
75.675                         0               0                0               0        0.0316218         171.778         0.991498         74.7659
                               0               0                0               0         0.991767          74.777        0.0314547         172.176
                               0               0                0               0          0.11934        -14.7885        0.0337998        -8.40848
                               0               0                0               0        0.0338007        -8.45203         0.119364        -14.8238
75.72                          0               0                0               0        0.0302759         169.831         0.992263         73.0304
                               0               0                0               0         0.992535         73.0399        0.0301098         170.239
                               0               0                0               0         0.113892        -16.5436        0.0329784        -10.5405
                               0               0                0               0         0.032977        -10.5867         0.113911        -16.5832
75.765                         0               0                0               0        0.0286745         167.856         0.993027          71.248
                               0               0                0               0         0.993298         71.2562        0.0285084         168.279
                               0               0                0               0         0.108185        -18.3514        0.0320551        -12.7605
                               0               0                0               0        0.0320524        -12.8101           0.1082        -18.3953
75.81                          0               0                0               0        0.0268381         165.853         0.993768         69.4224
                               0               0                0               0          0.99403         69.4302        0.0266695         166.297
                               0               0                0               0         0.102226        -20.2081         0.031029        -15.0596
                               0               0                0               0        0.0310268        -15.1143         0.102239        -20.2547
75.855                         0               0                0               0        0.0247866         163.825         0.994465         67.5575
                               0               0                0               0         0.994713         67.5665        0.0246121         164.295
                               0               0                0               0        0.0960231        -22.1094        0.0299004        -17.4285
                               0               0                0               0        0.0299009        -17.4906        0.0960378         -22.156
75.9                           0               0                0               0        0.0225389         161.776           0.9951          65.657
                               0               0                0               0         0.995334         65.6697        0.0223548          162.28
                               0               0                0               0        0.0895858        -24.0513         0.028671        -19.8571
                               0               0                0               0        0.0286767          -19.93        0.0896107        -24.0938
75.945                         0               0                0               0        0.0201132         159.712          0.99566         63.7247
                               0               0                0               0         0.995885          63.744        0.0199156         160.259
                               0               0                0               0        0.0829271        -26.0298         0.027344        -22.3349
                               0               0                0               0        0.0273573        -22.4229        0.0829733        -26.0631
75.99                          0               0                0               0        0.0175263         157.643         0.996136         61.7643
                               0               0                0               0          0.99637         61.7934         0.017312         158.248
                               0               0                0               0        0.0760612        -28.0413        0.0259241        -24.8504
                               0               0                0               0         0.025947        -24.9589        0.0761427        -28.0598
76.035                         0               0                0               0         0.014794         155.586         0.996527         59.7793
                               0               0                0               0         0.996795          59.821        0.0145609         156.276
                               0               0                0               0        0.0690045        -30.0826        0.0244174        -27.3918
                               0               0                0               0        0.0244513        -27.5269        0.0691369        -30.0814
76.08                          0               0                0               0        0.0119315         153.578         0.996839         57.7731
                               0               0                0               0         0.997172         57.8296        0.0116784         154.399
                               0               0                0               0        0.0617747         -32.152        0.0228313        -29.9461
                               0               0                0               0        0.0228767        -30.1144        0.0619733        -32.1275
76.125                         0               0                0               0       0.00895297         151.702         0.997083         55.7488
                               0               0                0               0         0.997515         55.8211       0.00868078         152.759
                               0               0                0               0        0.0543903        -34.2489         0.021174         -32.499
                               0               0                0               0        0.0212305        -32.7076        0.0546677        -34.2005
76.17                          0               0                0               0       0.00587284         150.224         0.997281         53.7092
                               0               0                0               0         0.997837         53.7966       0.00558467         151.819
                               0               0                0               0        0.0468706        -36.3761         0.019455         -35.034
                               0               0                0               0         0.019521        -35.2901        0.0472335        -36.3073
76.215                         0               0                0               0       0.00270791         150.667         0.997457         51.6567
                               0               0                0               0         0.998145          51.757        0.0024148         154.524
                               0               0                0               0        0.0392352        -38.5414        0.0176837        -37.5312
                               0               0                0               0         0.017757        -37.8415        0.0396816         -38.461
76.26                          0               0                0               0      0.000599258        -60.5234         0.997638         49.5939
                               0               0                0               0         0.998444         49.7029      0.000946619        -59.7923
                               0               0                0               0         0.031504        -40.7637        0.0158703        -39.9642
                               0               0                0               0        0.0159477        -40.3348        0.0320204        -40.6871
76.305                         0               0                0               0       0.00386196        -42.7264         0.997851         47.5229
                               0               0                0               0         0.998732         47.6347       0.00419862        -44.1488
                               0               0                0               0        0.0236971        -43.0901        0.0140247        -42.2951
                               0               0                0               0        0.0141027        -42.7316         0.024257        -43.0405
76.35                          0               0                0               0       0.00720838        -43.4463         0.998119         45.4463
                               0               0                0               0         0.999003         45.5537        0.0075409          -44.31
                               0               0                0               0        0.0158351        -45.6641        0.0121569        -44.4651
                               0               0                0               0        0.0122317        -44.9725        0.0163989        -45.6756
76.395                         0               0                0               0         0.010583        -45.2399         0.998452         43.3668
                               0               0                0               0         0.999248         43.4618        0.0109078        -45.8772
                               0               0                0               0       0.00794124         -49.202        0.0102768        -46.3733
                               0               0                0               0        0.0103447        -46.9572        0.0084584        -49.3199
76.44                          0               0                0               0        0.0139636        -47.3519         0.998843         41.2878
                               0               0                0               0         0.999457         41.3621        0.0142763        -47.8818
                               0               0                0               0      0.000398285        -135.672       0.00839467        -47.8302
                               0               0                0               0       0.00845245        -48.4986      0.000624863        -95.3343
76.485                         0               0                0               0        0.0173262        -49.6145         0.999259         39.2135
                               0               0                0               0         0.999612         39.2593        0.0176238         -50.091
                               0               0                0               0       0.00789239          132.31       0.00652248        -48.4311
                               0               0                0               0       0.00656751        -49.2004       0.00765911         132.827
76.53                          0               0                0               0        0.0206443        -51.9735         0.999634         37.1486
                               0               0                0               0         0.999689         37.1599        0.0209253        -52.4235
                               0               0                0               0        0.0157531         128.718       0.00467858        -47.1471
                               0               0                0               0       0.00470877        -48.0575        0.0157482         128.865
76.575                         0               0                0               0        0.0238884        -54.4121         0.999868         35.0983
                               0               0                0               0         0.999643          35.072        0.0241538        -54.8476
                               0               0                0               0        0.0235533         126.068       0.00290885        -40.5171
                               0               0                0               0       0.00292159        -41.6817        0.0238263         126.093
76.62                          0               0                0               0        0.0270278        -56.9308          0.99983         33.0675
                               0               0                0               0         0.999399         33.0047        0.0272804        -57.3535
                               0               0                0               0        0.0312603         123.634       0.00145435        -11.0505
                               0               0                0               0       0.00144106         -12.583        0.0318376         123.615
76.665                         0               0                0               0        0.0300323        -59.5399         0.999369         31.0601
                               0               0                0               0         0.998845          30.967         0.030276        -59.9442
                               0               0                0               0        0.0388421         121.267       0.00161784         58.7261
                               0               0                0               0       0.00159445         58.6607        0.0397154         121.264
76.71                          0               0                0               0        0.0328756         -62.256         0.998332          29.079
                               0               0                0               0         0.997832         28.9662        0.0331133        -62.6312
                               0               0                0               0        0.0462667         118.917       0.00310649         81.5493
                               0               0                0               0       0.00309485         81.5151        0.0473814         118.979
76.755                         0               0                0               0        0.0355382        -65.0979          0.99659         27.1251
                               0               0                0               0         0.996198          27.006        0.0357704        -65.4313
                               0               0                0               0        0.0535035         116.564       0.00477591         86.6089
                               0               0                0               0       0.00476801         86.4903        0.0547548         116.719
76.8                           0               0                0               0        0.0380107        -68.0822         0.994054         25.1984
                               0               0                0               0         0.993799         25.0864        0.0382341        -68.3629
                               0               0                0               0        0.0605252         114.198       0.00644973         87.1584
                               0               0                0               0       0.00643959         87.0161        0.0617719         114.441
76.845                         0               0                0               0        0.0402952        -71.2194         0.990688         23.2981
                               0               0                0               0          0.99055         23.2037        0.0405029        -71.4412
                               0               0                0               0        0.0673089         111.819       0.00808867         85.9864
                               0               0                0               0       0.00807175         85.8567        0.0684082          112.11
76.89                          0               0                0               0        0.0424041        -74.5094          0.98651         21.4233
                               0               0                0               0         0.986439         21.3526        0.0425875        -74.6733
                               0               0                0               0         0.073837         109.431        0.0096746         83.9789
                               0               0                0               0       0.00964775         83.8817        0.0746872         109.713
76.935                         0               0                0               0        0.0443572        -77.9403         0.981584         19.5736
                               0               0                0               0         0.981527         19.5278        0.0445089        -78.0541
                               0               0                0               0        0.0800974         107.044        0.0111946         81.5074
                               0               0                0               0        0.0111564         81.4514        0.0806627         107.267
76.98                          0               0                0               0        0.0461769         -81.489         0.976006         17.7491
                               0               0                0               0         0.975926         17.7257        0.0462932        -81.5649
                               0               0                0               0        0.0860826         104.667        0.0126377         78.7607
                               0               0                0               0        0.0125885         78.7464        0.0863882         104.808
77.025                         0               0                0               0        0.0478837        -85.1241         0.969888         15.9503
                               0               0                0               0         0.969771         15.9442        0.0479663        -85.1753
                               0               0                0               0        0.0917895         102.314         0.013994         75.8514
                               0               0                0               0        0.0139361         75.8722        0.0918971         102.377
77.07                          0               0                0               0        0.0494932        -88.8106         0.963353         14.1782
                               0               0                0               0         0.963201         14.1833        0.0495487        -88.8482
                               0               0                0               0        0.0972181         99.9972        0.0152552         72.8555
                               0               0                0               0        0.0151924         72.8989        0.0972009         100.004
77.115                         0               0                0               0        0.0510147        -92.5136         0.956517         12.4337
                               0               0                0               0         0.956345         12.4439        0.0510526        -92.5447
                               0               0                0               0         0.102371         97.7283        0.0164147         69.8295
                               0               0                0               0        0.0163519         69.8787         0.102299         97.7086
77.16                          0               0                0               0        0.0524515        -96.2023         0.949491         10.7176
                               0               0                0               0         0.949315         10.7271        0.0524827        -96.2293
                               0               0                0               0         0.107254         95.5168        0.0174681         66.8184
                               0               0                0               0        0.0174106         66.8536         0.107185         95.4988
77.205                         0               0                0               0        0.0538028        -99.8506         0.942375         9.03023