! TOUCHSTONE file generated by CST MICROWAVE STUDIO
! Date and time: Sun Jun 20 22:38:16 2021
! Project name: HIPS_d_sweep.cst
! Parameters = {fmax=120; fmin=75; b=0.46; d=25.5; a=0.63; phi=0; theta=0}
! Header version: 2018
! Port assignment regex: !\s*Touchstone port\s*([0-9]+)\s*=\s*(CST MWS port|CST DS port)\s*([0-9]+|Zmin|Zmax)\s*\(\"(.*)\"\)(\s*mode\s*([0-9]+))?.*
! Touchstone port assignment:
! Touchstone port 1 = CST MWS port Zmin ("") mode 1
! Touchstone port 2 = CST MWS port Zmin ("") mode 2
! Touchstone port 3 = CST MWS port Zmax ("") mode 1
! Touchstone port 4 = CST MWS port Zmax ("") mode 2
! S-Parameters are not renormalized. Unphysical impedance of 0 will be written to the file.
# GHz S MA R 0
75                             0               0                0               0         0.187174         26.7529         0.958458         118.407
                               0               0                0               0         0.958668         118.404         0.187245         26.7542
                               0               0                0               0         0.209217         27.0384        0.0470374        -31.1623
                               0               0                0               0        0.0470307        -31.3267         0.209251         27.0454
75.045                         0               0                0               0         0.182938         25.9305         0.959522         117.592
                               0               0                0               0         0.959736         117.589         0.183155         25.9287
                               0               0                0               0         0.208461         26.2694        0.0459442        -31.5217
                               0               0                0               0        0.0459386        -31.6849         0.208496         26.2765
75.09                          0               0                0               0          0.17913         25.0306         0.960497         116.692
                               0               0                0               0         0.960712          116.69         0.179369         25.0282
                               0               0                0               0         0.207539         25.4109        0.0448936        -32.0778
                               0               0                0               0        0.0448871        -32.2421         0.207574         25.4177
75.135                         0               0                0               0         0.175758         24.0549         0.961398         115.708
                               0               0                0               0          0.96161         115.706          0.17595         24.0533
                               0               0                0               0         0.206449         24.4648          0.04388        -32.8336
                               0               0                0               0        0.0438715        -33.0006         0.206484         24.4712
75.18                          0               0                0               0         0.172823         23.0053         0.962236         114.641
                               0               0                0               0         0.962444         114.639         0.172945         23.0047
                               0               0                0               0         0.205182         23.4332        0.0428978        -33.7933
                               0               0                0               0        0.0428866        -33.9635         0.205218         23.4391
75.225                         0               0                0               0         0.170324         21.8836         0.963022         113.491
                               0               0                0               0         0.963225         113.489         0.170376         21.8838
                               0               0                0               0         0.203732         22.3181        0.0419412        -34.9618
                               0               0                0               0        0.0419268        -35.1354         0.203769         22.3235
75.27                          0               0                0               0         0.168258         20.6918         0.963764         112.261
                               0               0                0               0         0.963963         112.258         0.168256         20.6922
                               0               0                0               0         0.202087         21.1217        0.0410043        -36.3452
                               0               0                0               0        0.0409865        -36.5219         0.202124         21.1266
75.315                         0               0                0               0         0.166618         19.4315          0.96447          110.95
                               0               0                0               0         0.964667         110.948         0.166584         19.4316
                               0               0                0               0         0.200235         19.8462        0.0400816        -37.9506
                               0               0                0               0        0.0400602        -38.1298         0.200273         19.8506
75.36                          0               0                0               0         0.165397         18.1045         0.965146         109.562
                               0               0                0               0         0.965341          109.56          0.16535         18.1039
                               0               0                0               0         0.198162         18.4937        0.0391675        -39.7862
                               0               0                0               0        0.0391424        -39.9674         0.198201         18.4976
75.405                         0               0                0               0         0.164584         16.7124         0.965796         108.098
                               0               0                0               0         0.965991         108.096         0.164542          16.711
                               0               0                0               0         0.195856         17.0666        0.0382571        -41.8614
                               0               0                0               0         0.038228        -42.0439         0.195895         17.0703
75.45                          0               0                0               0         0.164169         15.2568         0.966424          106.56
                               0               0                0               0          0.96662         106.558         0.164141         15.2549
                               0               0                0               0         0.193302         15.5677        0.0373459        -44.1868
                               0               0                0               0        0.0373123        -44.3699         0.193341          15.571
75.495                         0               0                0               0         0.164139         13.7393         0.967031         104.951
                               0               0                0               0         0.967229         104.949         0.164129         13.7373
                               0               0                0               0         0.190485         13.9998          0.03643        -46.7745
                               0               0                0               0        0.0363916        -46.9576         0.190525         14.0028
75.54                          0               0                0               0          0.16448         12.1615          0.96762         103.273
                               0               0                0               0          0.96782         103.271         0.164486         12.1599
                               0               0                0               0         0.187392          12.366        0.0355064        -49.6381
                               0               0                0               0        0.0354629        -49.8206         0.187432         12.3688
75.585                         0               0                0               0          0.16518          10.525         0.968191          101.53
                               0               0                0               0         0.968392         101.528         0.165194         10.5244
                               0               0                0               0          0.18401         10.6699        0.0345735        -52.7928
                               0               0                0               0        0.0345244        -52.9739         0.184051         10.6724
75.63                          0               0                0               0         0.166222         8.83151         0.968742         99.7236
                               0               0                0               0         0.968944          99.722         0.166234          8.8322
                               0               0                0               0         0.180329         8.91539        0.0336308        -56.2554
                               0               0                0               0         0.033576        -56.4346          0.18037         8.91757
75.675                         0               0                0               0         0.167592          7.0827         0.969275         97.8579
                               0               0                0               0         0.969476         97.8561          0.16759         7.08488
                               0               0                0               0          0.17634         7.10676        0.0326798        -60.0449
                               0               0                0               0        0.0326194        -60.2214         0.176381         7.10851
75.72                          0               0                0               0         0.169274         5.28039         0.969787         95.9357
                               0               0                0               0         0.969985         95.9338         0.169244         5.28388
                               0               0                0               0         0.172035         5.24876        0.0317239        -64.1817
                               0               0                0               0        0.0316584        -64.3548         0.172077         5.24995
75.765                         0               0                0               0         0.171251         3.42649         0.970275         93.9605
                               0               0                0               0          0.97047         93.9583         0.171184          3.4307
                               0               0                0               0          0.16741         3.34657        0.0307692         -68.688
                               0               0                0               0        0.0306996         -68.857         0.167453         3.34702
75.81                          0               0                0               0         0.173506           1.523         0.970739         91.9357
                               0               0                0               0         0.970928         91.9333         0.173394         1.52699
                               0               0                0               0         0.162465         1.40583        0.0298245        -73.5869
                               0               0                0               0        0.0297524        -73.7508         0.162508         1.40533
75.855                         0               0                0               0          0.17602       -0.427989         0.971176         89.8649
                               0               0                0               0         0.971357         89.8622         0.175863       -0.425411
                               0               0                0               0         0.157199       -0.567336        0.0289019        -78.9017
                               0               0                0               0        0.0288296        -79.0595         0.157243       -0.569024
75.9                           0               0                0               0         0.178776        -2.42426         0.971581         87.7518
                               0               0                0               0         0.971754         87.7487         0.178576        -2.42437
                               0               0                0               0         0.151619        -2.56628         0.028017        -84.6537
                               0               0                0               0        0.0279474        -84.8041         0.151663        -2.56945
75.945                         0               0                0               0         0.181753        -4.46349         0.971953         85.6001
                               0               0                0               0         0.972117         85.5967         0.181522        -4.46744
                               0               0                0               0         0.145731        -4.58384        0.0271891        -90.8599
                               0               0                0               0        0.0271255        -91.0008         0.145775         -4.5888
75.99                          0               0                0               0         0.184931        -6.54324         0.972286         83.4136
                               0               0                0               0         0.972442           83.41         0.184686         -6.5518
                               0               0                0               0         0.139546         -6.6122        0.0264409        -97.5289
                               0               0                0               0        0.0263872        -97.6575         0.139591        -6.61926
76.035                         0               0                0               0         0.188287        -8.66099         0.972577         81.1963
                               0               0                0               0         0.972725         81.1926          0.18805        -8.67428
                               0               0                0               0         0.133077         -8.6428        0.0257982        -104.656
                               0               0                0               0        0.0257583        -104.768         0.133122         -8.6523
76.08                          0               0                0               0         0.191799        -10.8141          0.97282         78.9522
                               0               0                0               0         0.972963         78.9484         0.191598        -10.8314
                               0               0                0               0          0.12634        -10.6662        0.0252888        -112.217
                               0               0                0               0        0.0252664        -112.307         0.126385        -10.6784
76.125                         0               0                0               0         0.195443        -12.9998          0.97301         76.6852
                               0               0                0               0          0.97315         76.6816         0.195305        -13.0196
                               0               0                0               0         0.119353        -12.6715        0.0249407        -120.165
                               0               0                0               0        0.0249389        -120.225         0.119397        -12.6867
76.17                          0               0                0               0         0.199192        -15.2154         0.973141         74.3994
                               0               0                0               0          0.97328         74.3962         0.199145        -15.2351
                               0               0                0               0         0.112135        -14.6464        0.0247804        -128.425
                               0               0                0               0        0.0248009        -128.448         0.112178        -14.6648
76.215                         0               0                0               0         0.203021        -17.4577         0.973205          72.099
                               0               0                0               0         0.973347         72.0964         0.203086        -17.4747
                               0               0                0               0         0.104707        -16.5759        0.0248298        -136.899
                               0               0                0               0        0.0248729        -136.877          0.10475        -16.5975
76.26                          0               0                0               0         0.206902        -19.7239         0.973198          69.788
                               0               0                0               0         0.973345         69.7862         0.207092        -19.7353
                               0               0                0               0        0.0970922        -18.4417        0.0251047         -145.47
                               0               0                0               0        0.0251685        -145.396         0.097134        -18.4664
76.305                         0               0                0               0         0.210808        -22.0108         0.973113         67.4705
                               0               0                0               0         0.973266         67.4698          0.21112        -22.0146
                               0               0                0               0        0.0893147        -20.2202        0.0256125        -154.014
                               0               0                0               0        0.0256932        -153.888         0.089355        -20.2478
76.35                          0               0                0               0         0.214712         -24.315         0.972945         65.1506
                               0               0                0               0         0.973104         65.1509         0.215129         -24.311
                               0               0                0               0           0.0814        -21.8802        0.0263522        -162.415
                               0               0                0               0        0.0264438         -162.24        0.0814387          -21.91
76.395                         0               0                0               0         0.218587        -26.6331         0.972693         62.8322
                               0               0                0               0         0.972857         62.8335         0.219072        -26.6234
                               0               0                0               0        0.0733758        -23.3786        0.0273145        -170.572
                               0               0                0               0        0.0274094        -170.359        0.0734127        -23.4097
76.44                          0               0                0               0         0.222411        -28.9612         0.972358          60.519
                               0               0                0               0         0.972524         60.5212         0.222909         -28.951
                               0               0                0               0        0.0652728         -24.653        0.0284832         -178.41
                               0               0                0               0         0.028573        -178.178        0.0653082        -24.6844
76.485                         0               0                0               0         0.226164        -31.2952         0.971947         58.2146
                               0               0                0               0         0.972108         58.2173         0.226603        -31.2928
                               0               0                0               0        0.0571264        -25.6092        0.0298364          174.12
                               0               0                0               0        0.0299133         174.351        0.0571605        -25.6396
76.53                          0               0                0               0         0.229831        -33.6308         0.971472         55.9221
                               0               0                0               0         0.971622         55.9249          0.23013        -33.6461
                               0               0                0               0        0.0489799         -26.095        0.0313473         167.045
                               0               0                0               0        0.0314059         167.251        0.0490133        -26.1238
76.575                         0               0                0               0         0.233402        -35.9634         0.970948         53.6444
                               0               0                0               0         0.971081         53.6467         0.233492        -36.0047
                               0               0                0               0        0.0408902        -25.8474        0.0329845         160.372
                               0               0                0               0        0.0330242         160.532        0.0409237        -25.8759
76.62                          0               0                0               0         0.236873        -38.2885         0.970386         51.3839
                               0               0                0               0         0.970498         51.3851         0.236733        -38.3553
                               0               0                0               0        0.0329414        -24.3664        0.0347119         154.089
                               0               0                0               0        0.0347386         154.193        0.0329758        -24.4014
76.665                         0               0                0               0         0.240232        -40.6033         0.969772         49.1427
                               0               0                0               0         0.969865         49.1424         0.239972        -40.6713
                               0               0                0               0        0.0252794        -20.5881        0.0364886         148.169
                               0               0                0               0        0.0365154          148.22        0.0253143        -20.6507
76.71                          0               0                0               0         0.243449        -42.9088         0.969029         46.9227
                               0               0                0               0         0.969114         46.9209         0.243383        -42.9076
                               0               0                0               0        0.0182228        -11.9533        0.0382715         142.563
                               0               0                0               0        0.0383151         142.585        0.0182525        -12.0978
76.755                         0               0                0               0         0.246445        -45.2145          0.96796         44.7261
                               0               0                0               0         0.968053         44.7237         0.246915        -45.0376
                               0               0                0               0        0.0126718         7.80591        0.0400208         137.205
                               0               0                0               0        0.0400936         137.229        0.0126738          7.4885
76.8                           0               0                0               0         0.249068        -47.5429           0.9662         42.5562
                               0               0                0               0         0.966312         42.5542         0.249875        -47.1987
                               0               0                0               0        0.0109644         43.8101        0.0417053         132.014
                               0               0                0               0        0.0418073          132.06        0.0109057         43.4965
76.845                         0               0                0               0         0.251134        -49.9297         0.963262         40.4169
                               0               0                0               0         0.963384         40.4158         0.251719        -49.6247
                               0               0                0               0        0.0144085          73.936        0.0433034         126.905
                               0               0                0               0        0.0434162         126.962        0.0143254         73.8904
76.89                          0               0                0               0         0.252531        -52.4069         0.958747         38.3112
                               0               0                0               0         0.958852         38.3102         0.252721        -52.2705
                               0               0                0               0        0.0204814         87.5242        0.0447918         121.811
                               0               0                0               0        0.0448814         121.849        0.0204151          87.544
76.935                         0               0                0               0         0.253305        -54.9762         0.952629         36.2396
                               0               0                0               0           0.9527         36.2374         0.253243         -54.967
                               0               0                0               0        0.0273358         92.7611        0.0461332         116.712
                               0               0                0               0        0.0461701         116.725        0.0272852         92.7544
76.98                          0               0                0               0         0.253606        -57.6026           0.9453         34.2011
                               0               0                0               0         0.945349         34.1977         0.253468        -57.6348
                               0               0                0               0        0.0342561         94.4551        0.0472893         111.664
                               0               0                0               0        0.0472831         111.672        0.0342071         94.4331
77.025                         0               0                0               0          0.25358        -60.2392         0.937332          32.195
                               0               0                0               0         0.937386         32.1917         0.253468         -60.258
                               0               0                0               0        0.0409722         94.6278        0.0482643         106.767
                               0               0                0               0         0.048261         106.782        0.0409219         94.6144
77.07                          0               0                0               0         0.253318         -62.851         0.929194         30.2217
                               0               0                0               0         0.929272         30.2198         0.253268        -62.8383
                               0               0                0               0        0.0474221         94.1251        0.0491141          102.09
                               0               0                0               0        0.0491503         102.093        0.0473756         94.1256
77.115                         0               0                0               0         0.252867        -65.4205         0.921152         28.2818
                               0               0                0               0         0.921259         28.2819         0.252878        -65.3796
                               0               0                0               0        0.0536141         93.2895        0.0498977         97.6368
                               0               0                0               0        0.0499778          97.608         0.053575         93.2987
77.16                          0               0                0               0         0.252255        -67.9421         0.913313         26.3751
                               0               0                0               0         0.913442         26.3771         0.252308        -67.8839
                               0               0                0               0        0.0595618         92.2647        0.0506422         93.3755
                               0               0                0               0        0.0507503          93.313        0.0595293         92.2766
77.205                         0               0                0               0         0.251494        -70.4161         0.905701         24.5011