! TOUCHSTONE file generated by CST MICROWAVE STUDIO
! Date and time: Sun Jun 20 22:37:25 2021
! Project name: HIPS_d_sweep.cst
! Parameters = {fmax=120; fmin=75; b=0.46; d=20.8; a=0.63; phi=0; theta=0}
! Header version: 2018
! Port assignment regex: !\s*Touchstone port\s*([0-9]+)\s*=\s*(CST MWS port|CST DS port)\s*([0-9]+|Zmin|Zmax)\s*\(\"(.*)\"\)(\s*mode\s*([0-9]+))?.*
! Touchstone port assignment:
! Touchstone port 1 = CST MWS port Zmin ("") mode 1
! Touchstone port 2 = CST MWS port Zmin ("") mode 2
! Touchstone port 3 = CST MWS port Zmax ("") mode 1
! Touchstone port 4 = CST MWS port Zmax ("") mode 2
! S-Parameters are not renormalized. Unphysical impedance of 0 will be written to the file.
# GHz S MA R 0
75                             0               0                0               0         0.126069         26.1512          0.96892        -68.4518
                               0               0                0               0         0.968854        -68.4723         0.126195         26.1558
                               0               0                0               0         0.205203         23.2883        0.0538238          51.368
                               0               0                0               0        0.0538368         51.3997         0.205186         23.2685
75.045                         0               0                0               0         0.129175         25.2569         0.970257        -69.1121
                               0               0                0               0         0.970045        -69.1398         0.129299         25.2551
                               0               0                0               0         0.204099         22.6688        0.0545652         50.5376
                               0               0                0               0        0.0545216         50.6931         0.204042         22.6501
75.09                          0               0                0               0         0.132122         24.3392         0.971081         -69.843
                               0               0                0               0         0.970781        -69.8767         0.132246         24.3331
                               0               0                0               0         0.202848         21.9834         0.055281         49.6675
                               0               0                0               0        0.0551781          49.921         0.202765          21.965
75.135                         0               0                0               0         0.134884         23.3936         0.971495        -70.6463
                               0               0                0               0         0.971156        -70.6843         0.135009         23.3846
                               0               0                0               0         0.201459         21.2317        0.0559634         48.7519
                               0               0                0               0         0.055802         49.0756          0.20136         21.2131
75.18                          0               0                0               0         0.137435         22.4151         0.971599        -71.5225
                               0               0                0               0         0.971257        -71.5631          0.13756         22.4046
                               0               0                0               0         0.199936         20.4134        0.0566042         47.7831
                               0               0                0               0        0.0563893         48.1494          0.19983         20.3946
75.225                         0               0                0               0         0.139751          21.399         0.971489        -72.4712
                               0               0                0               0         0.971168        -72.5129         0.139876         21.3879
                               0               0                0               0         0.198281         19.5291        0.0571954         46.7527
                               0               0                0               0        0.0569365         47.1346         0.198176         19.5101
75.27                          0               0                0               0         0.141811         20.3407         0.971249         -73.491
                               0               0                0               0         0.970963        -73.5324         0.141935         20.3297
                               0               0                0               0         0.196497         18.5793        0.0577295         45.6508
                               0               0                0               0        0.0574402         46.0238         0.196396         18.5602
75.315                         0               0                0               0         0.143598         19.2358         0.970951        -74.5802
                               0               0                0               0         0.970708          -74.62          0.14372         19.2253
                               0               0                0               0         0.194581         17.5649        0.0582004         44.4668
                               0               0                0               0         0.057898         44.8101         0.194489         17.5459
75.36                          0               0                0               0         0.145099         18.0806         0.970658        -75.7361
                               0               0                0               0         0.970459        -75.7737         0.145218         18.0708
                               0               0                0               0         0.192531          16.487        0.0586035         43.1895
                               0               0                0               0        0.0583073         43.4873         0.192449         16.4682
75.405                         0               0                0               0         0.146304         16.8718         0.970419         -76.956
                               0               0                0               0         0.970262        -76.9907          0.14642         16.8628
                               0               0                0               0         0.190343          15.347        0.0589365         41.8081
                               0               0                0               0        0.0586664         42.0505         0.190273         15.3285
75.45                          0               0                0               0          0.14721         15.6069         0.970272        -78.2368
                               0               0                0               0          0.97015        -78.2685         0.147321         15.5985
                               0               0                0               0         0.188011         14.1461        0.0591993         40.3128
                               0               0                0               0        0.0589734         40.4961         0.187952          14.128
75.495                         0               0                0               0         0.147815         14.2842         0.970243        -79.5753
                               0               0                0               0          0.97015        -79.6039         0.147921         14.2763
                               0               0                0               0         0.185528          12.886         0.059394         38.6956
                               0               0                0               0        0.0592265         38.8219          0.18548         12.8684
75.54                          0               0                0               0         0.148123         12.9026         0.970349        -80.9682
                               0               0                0               0         0.970278        -80.9939         0.148224         12.8952
                               0               0                0               0         0.182888         11.5686        0.0595244         36.9515
                               0               0                0               0         0.059424         37.0276         0.182848         11.5514
75.585                         0               0                0               0         0.148142         11.4623         0.970599        -82.4124
                               0               0                0               0         0.970543        -82.4356         0.148237         11.4552
                               0               0                0               0         0.180081         10.1956        0.0595953         35.0785
                               0               0                0               0        0.0595638         35.1146         0.180048         10.1789
75.63                          0               0                0               0         0.147881         9.96375         0.970991        -83.9046
                               0               0                0               0         0.970944        -83.9259         0.147971         9.95708
                               0               0                0               0           0.1771         8.76917        0.0596114         33.0786
                               0               0                0               0        0.0596434         33.0863         0.177073         8.75295
75.675                         0               0                0               0         0.147355         8.40854          0.97152        -85.4419
                               0               0                0               0         0.971478        -85.4617         0.147439         8.40236
                               0               0                0               0         0.173936          7.2917        0.0595766         30.9574
                               0               0                0               0          0.05966         30.9479         0.173913         7.27595
75.72                          0               0                0               0         0.146577         6.79875         0.972175        -87.0214
                               0               0                0               0         0.972134        -87.0403         0.146657         6.79331
                               0               0                0               0         0.170582         5.76571        0.0594928         28.7238
                               0               0                0               0        0.0596107         28.7065         0.170561         5.75044
75.765                         0               0                0               0         0.145565         5.13706          0.97294        -88.6404
                               0               0                0               0         0.972899        -88.6589         0.145642         5.13274
                               0               0                0               0         0.167031         4.19401        0.0593597         26.3892
                               0               0                0               0        0.0594922         26.3705          0.16701         4.17925
75.81                          0               0                0               0         0.144338         3.42662         0.973798        -90.2963
                               0               0                0               0         0.973755        -90.3148         0.144412         3.42392
                               0               0                0               0         0.163276         2.57964        0.0591743         23.9671
                               0               0                0               0        0.0593015           23.95         0.163255         2.56546
75.855                         0               0                0               0         0.142913         1.67092         0.974728        -91.9867
                               0               0                0               0         0.974686        -92.0055         0.142984         1.67044
                               0               0                0               0         0.159314        0.925952        0.0589311         21.4719
                               0               0                0               0        0.0590358         21.4561         0.159291        0.912429
75.9                           0               0                0               0         0.141308       -0.126346         0.975712        -93.7092
                               0               0                0               0         0.975671        -93.7285         0.141379       -0.123918
                               0               0                0               0         0.155139       -0.763461        0.0586228         18.9179
                               0               0                0               0         0.058693         18.9009         0.155115       -0.776233
75.945                         0               0                0               0         0.139543        -1.96135          0.97673        -95.4616
                               0               0                0               0         0.976692        -95.4813         0.139613        -1.95527
                               0               0                0               0         0.150752        -2.48474        0.0582406         16.3189
                               0               0                0               0        0.0582721         16.2967         0.150727        -2.49667
75.99                          0               0                0               0         0.137635        -3.83026         0.977765        -97.2418
                               0               0                0               0         0.977731        -97.2616         0.137705        -3.81978
                               0               0                0               0         0.146153         -4.2338        0.0577752          13.687
                               0               0                0               0        0.0577731         13.6562         0.146127        -4.24482
76.035                         0               0                0               0           0.1356        -5.72932         0.978803        -99.0474
                               0               0                0               0         0.978774        -99.0671          0.13567         -5.7137
                               0               0                0               0         0.141344        -6.00637        0.0572177         11.0317
                               0               0                0               0        0.0571974         10.9913         0.141318        -6.01646
76.08                          0               0                0               0         0.133455        -7.65494         0.979833        -100.876
                               0               0                0               0         0.979808        -100.895         0.133525        -7.63353
                               0               0                0               0         0.136331        -7.79805        0.0565613         8.35951
                               0               0                0               0        0.0565477         8.31322         0.136306        -7.80725
76.125                         0               0                0               0         0.131213        -9.60378         0.980849        -102.726
                               0               0                0               0         0.980827        -102.743         0.131283          -9.576
                               0               0                0               0          0.13112        -9.60443        0.0558023          5.6731
                               0               0                0               0         0.055828         5.63167         0.131099        -9.61285
76.17                          0               0                0               0         0.128887        -11.5727         0.981852        -104.594
                               0               0                0               0         0.981826        -104.609         0.128958        -11.5382
                               0               0                0               0          0.12572        -11.4211        0.0549425         2.97147
                               0               0                0               0        0.0550429         2.95433         0.125704         -11.429
76.215                         0               0                0               0         0.126491        -13.5591         0.982843        -106.476
                               0               0                0               0         0.982808        -106.489         0.126561        -13.5176
                               0               0                0               0         0.120143        -13.2439        0.0539904        0.251086
                               0               0                0               0        0.0541975        0.286321         0.120133        -13.2515
76.26                          0               0                0               0         0.124033        -15.5604          0.98383         -108.37
                               0               0                0               0         0.983778        -108.379         0.124102         -15.512
                               0               0                0               0         0.114402         -15.069        0.0529616        -2.49164
                               0               0                0               0         0.053296        -2.37041         0.114398        -15.0765
76.305                         0               0                0               0         0.121525        -17.5746         0.984821         -110.27
                               0               0                0               0         0.984744        -110.276         0.121592        -17.5196
                               0               0                0               0          0.10851        -16.8929        0.0518774        -5.25703
                               0               0                0               0         0.052341        -5.01773         0.108512        -16.9006
76.35                          0               0                0               0         0.118974        -19.5999         0.985823        -112.172
                               0               0                0               0         0.985716        -112.176         0.119038        -19.5389
                               0               0                0               0         0.102482        -18.7128        0.0507611         -8.0395
                               0               0                0               0        0.0513317        -7.66204          0.10249        -18.7208
76.395                         0               0                0               0         0.116388        -21.6348         0.986834        -114.071
                               0               0                0               0           0.9867        -114.072          0.11645        -21.5688
                               0               0                0               0        0.0963333        -20.5266        0.0496327        -10.8274
                               0               0                0               0        0.0502623        -10.3158        0.0963449        -20.5344
76.44                          0               0                0               0         0.113777        -23.6779         0.987845        -115.959
                               0               0                0               0         0.987699         -115.96         0.113834        -23.6083
                               0               0                0               0        0.0900804        -22.3325        0.0485052        -13.6058
                               0               0                0               0          0.04912        -13.0004         0.090092        -22.3392
76.485                         0               0                0               0         0.111148        -25.7276         0.988835        -117.831
                               0               0                0               0         0.988704        -117.834         0.111201         -25.656
                               0               0                0               0        0.0837383        -24.1293        0.0473833        -16.3616
                               0               0                0               0        0.0478863        -15.7551        0.0837455        -24.1329
76.53                          0               0                0               0         0.108513         -27.782         0.989771        -119.683
                               0               0                0               0         0.989698        -119.689         0.108561          -27.71
                               0               0                0               0        0.0773222        -25.9146        0.0462636        -19.0876
                               0               0                0               0        0.0465505        -18.6545        0.0773198        -25.9122
76.575                         0               0                0               0         0.105885        -29.8375         0.990624        -121.508
                               0               0                0               0         0.990659        -121.521         0.105929        -29.7669
                               0               0                0               0        0.0708467        -27.6838        0.0451367        -21.7844
                               0               0                0               0        0.0451683        -21.8154        0.0708294        -27.6713
76.62                          0               0                0               0         0.103281        -31.8881         0.991375        -123.308
                               0               0                0               0          0.99156         -123.33         0.103323        -31.8199
                               0               0                0               0        0.0643261        -29.4256         0.043988        -24.4594
                               0               0                0               0        0.0439438        -25.2265        0.0642896        -29.3983
76.665                         0               0                0               0         0.100723        -33.9226         0.992036        -125.083
                               0               0                0               0         0.992379        -125.118         0.100765        -33.8569
                               0               0                0               0        0.0577743        -31.1158        0.0427972        -27.1228
                               0               0                0               0        0.0429633        -28.4291        0.0577168        -31.0691
76.71                          0               0                0               0        0.0982386        -35.9218         0.992647        -126.844
                               0               0                0               0         0.993088        -126.893        0.0982809        -35.8567
                               0               0                0               0        0.0512048        -32.7054        0.0415392        -29.7802
                               0               0                0               0        0.0418787        -31.1135        0.0511292        -32.6367
76.755                         0               0                0               0        0.0958531        -37.8539          0.99321        -128.609
                               0               0                0               0         0.993596         -128.67        0.0958963        -37.7851
                               0               0                0               0         0.044631        -34.1004        0.0401857        -32.4211
                               0               0                0               0        0.0404993        -33.4942        0.0445465        -34.0107
76.8                           0               0                0               0        0.0935861        -39.6708         0.993491        -130.408
                               0               0                0               0         0.993649        -130.469        0.0936261        -39.5922
                               0               0                0               0         0.038068        -35.1257        0.0387135         -35.007
                               0               0                0               0        0.0389056        -35.7238        0.0379904        -35.0215
76.845                         0               0                0               0        0.0914354        -41.3085         0.992772         -132.26
                               0               0                0               0         0.992732        -132.301        0.0914633        -41.2137
                               0               0                0               0        0.0315385        -35.4546        0.0371182        -37.4656
                               0               0                0               0        0.0372049         -37.809        0.0314873        -35.3482
76.89                          0               0                0               0        0.0893662        -42.6961         0.990146        -134.138
                               0               0                0               0         0.990242        -134.151        0.0893705        -42.5818
                               0               0                0               0        0.0250892        -34.4468        0.0354278        -39.7041
                               0               0                0               0        0.0354734        -39.7217        0.0250808        -34.3575
76.935                         0               0                0               0        0.0873126        -43.7745         0.985525        -135.976
                               0               0                0               0         0.985995        -135.976        0.0872866        -43.6428
                               0               0                0               0        0.0188345        -30.7068        0.0337017        -41.6427
                               0               0                0               0        0.0337629        -41.4432        0.0188728        -30.6673
76.98                          0               0                0               0        0.0852035        -44.5163         0.979763        -137.736
                               0               0                0               0         0.980457        -137.741        0.0851532        -44.3728
                               0               0                0               0        0.0130928        -20.7069        0.0320115          -43.25
                               0               0                0               0        0.0321073        -42.9721        0.0131615        -20.7938
77.025                         0               0                0               0        0.0830031        -44.9316         0.973686        -139.423
                               0               0                0               0         0.974324        -139.437        0.0829492        -44.7807
                               0               0                0               0       0.00889877         4.40484         0.030414        -44.5533
                               0               0                0               0         0.030527        -44.3201       0.00895623         4.04328
77.07                          0               0                0               0        0.0807359        -45.0564         0.967662        -141.061
                               0               0                0               0         0.968073        -141.077         0.080708        -44.8982
                               0               0                0               0       0.00868161         45.6592        0.0289368        -45.6185
                               0               0                0               0        0.0290316         -45.506       0.00869846         45.2957
77.115                         0               0                0               0        0.0784816        -44.9348         0.961767        -142.666
                               0               0                0               0         0.961908        -142.679        0.0785102        -44.7659
                               0               0                0               0        0.0124282         72.1697        0.0275813         -46.519
                               0               0                0               0        0.0276233        -46.5518        0.0124693         72.0761
77.16                          0               0                0               0        0.0763476          -44.61         0.955981        -144.249
                               0               0                0               0         0.955879        -144.253        0.0764577        -44.4276
                               0               0                0               0        0.0175656          83.336        0.0263336        -47.3155
                               0               0                0               0        0.0262993        -47.4785        0.0176852         83.3364
77.205                         0               0                0               0          0.07444         -44.126         0.950275        -145.814