! TOUCHSTONE file generated by CST MICROWAVE STUDIO
! Date and time: Sun Jun 20 22:37:28 2021
! Project name: HIPS_d_sweep.cst
! Parameters = {fmax=120; fmin=75; b=0.46; d=21.1; a=0.63; phi=0; theta=0}
! Header version: 2018
! Port assignment regex: !\s*Touchstone port\s*([0-9]+)\s*=\s*(CST MWS port|CST DS port)\s*([0-9]+|Zmin|Zmax)\s*\(\"(.*)\"\)(\s*mode\s*([0-9]+))?.*
! Touchstone port assignment:
! Touchstone port 1 = CST MWS port Zmin ("") mode 1
! Touchstone port 2 = CST MWS port Zmin ("") mode 2
! Touchstone port 3 = CST MWS port Zmax ("") mode 1
! Touchstone port 4 = CST MWS port Zmax ("") mode 2
! S-Parameters are not renormalized. Unphysical impedance of 0 will be written to the file.
# GHz S MA R 0
75                             0               0                0               0         0.112648        -8.93041         0.983988        -102.211
                               0               0                0               0         0.983915        -102.211         0.112609        -8.93368
                               0               0                0               0         0.127214        -9.64898        0.0519461         4.18782
                               0               0                0               0        0.0519188         4.16528         0.127319        -9.62957
75.045                         0               0                0               0         0.116286        -9.77901         0.984019        -102.915
                               0               0                0               0         0.983978        -102.921         0.116244        -9.78034
                               0               0                0               0         0.125086        -10.2119         0.052521         3.54562
                               0               0                0               0          0.05248         3.51684         0.125191        -10.1925
75.09                          0               0                0               0         0.119641         -10.683         0.983965        -103.692
                               0               0                0               0          0.98394          -103.7         0.119598         -10.683
                               0               0                0               0         0.122725        -10.8384        0.0529764         2.78122
                               0               0                0               0        0.0529323         2.74977          0.12283        -10.8186
75.135                         0               0                0               0         0.122685        -11.6459         0.983875        -104.541
                               0               0                0               0          0.98385        -104.548         0.122642        -11.6453
                               0               0                0               0         0.120133        -11.5301        0.0533208          1.8868
                               0               0                0               0        0.0532804         1.85605         0.120239        -11.5097
75.18                          0               0                0               0         0.125392        -12.6712         0.983791        -105.461
                               0               0                0               0         0.983753        -105.467         0.125351        -12.6704
                               0               0                0               0         0.117312        -12.2882        0.0535618        0.858047
                               0               0                0               0        0.0535285        0.830474         0.117419         -12.267
75.225                         0               0                0               0         0.127747        -13.7617         0.983747        -106.452
                               0               0                0               0         0.983689        -106.455         0.127708        -13.7609
                               0               0                0               0         0.114262        -13.1135        0.0537052        -0.30668
                               0               0                0               0        0.0536799       -0.329777         0.114369        -13.0912
75.27                          0               0                0               0         0.129736        -14.9196         0.983768        -107.511
                               0               0                0               0         0.983688        -107.511           0.1297         -14.919
                               0               0                0               0         0.110982        -14.0058        0.0537554        -1.60707
                               0               0                0               0        0.0537374        -1.62554         0.111091        -13.9824
75.315                         0               0                0               0         0.131354        -16.1464         0.983875        -108.638
                               0               0                0               0         0.983775        -108.635         0.131319         -16.146
                               0               0                0               0         0.107471        -14.9647        0.0537146        -3.04139
                               0               0                0               0        0.0537024        -3.05602         0.107582          -14.94
75.36                          0               0                0               0         0.132601        -17.4426         0.984079        -109.829
                               0               0                0               0         0.983966        -109.825         0.132567        -17.4424
                               0               0                0               0         0.103729        -15.9889        0.0535837        -4.60685
                               0               0                0               0        0.0535752        -4.61911         0.103841         -15.963
75.405                         0               0                0               0         0.133482        -18.8081         0.984386        -111.083
                               0               0                0               0          0.98427         -111.08         0.133447        -18.8079
                               0               0                0               0        0.0997534        -17.0765        0.0533623        -6.29984
                               0               0                0               0        0.0533553        -6.31161        0.0998665        -17.0493
75.45                          0               0                0               0         0.134006        -20.2419         0.984796        -112.399
                               0               0                0               0         0.984687        -112.397         0.133969        -20.2416
                               0               0                0               0        0.0955427        -18.2248        0.0530488        -8.11614
                               0               0                0               0        0.0530415        -8.12938        0.0956566        -18.1963
75.495                         0               0                0               0         0.134186        -21.7422         0.985301        -113.773
                               0               0                0               0         0.985212        -113.774         0.134147        -21.7416
                               0               0                0               0        0.0910956          -19.43        0.0526411         -10.051
                               0               0                0               0         0.052632        -10.0675        0.0912101        -19.4001
75.54                          0               0                0               0          0.13404        -23.3065         0.985891        -115.204
                               0               0                0               0         0.985832        -115.209         0.133997        -23.3054
                               0               0                0               0        0.0864116        -20.6871        0.0521367        -12.0992
                               0               0                0               0        0.0521247        -12.1205        0.0865263        -20.6556
75.585                         0               0                0               0         0.133586        -24.9319         0.986549         -116.69
                               0               0                0               0         0.986527        -116.699         0.133538        -24.9299
                               0               0                0               0         0.081491        -21.9894        0.0515332        -14.2551
                               0               0                0               0         0.051518        -14.2822        0.0816058        -21.9562
75.63                          0               0                0               0         0.132843        -26.6146         0.987255        -118.227
                               0               0                0               0         0.987275        -118.242         0.132789        -26.6117
                               0               0                0               0        0.0763356        -23.3284        0.0508283        -16.5128
                               0               0                0               0        0.0508101        -16.5462        0.0764504        -23.2932
75.675                         0               0                0               0         0.131832        -28.3508         0.987988        -119.814
                               0               0                0               0         0.988049        -119.834         0.131772        -28.3469
                               0               0                0               0        0.0709492        -24.6926        0.0500205        -18.8662
                               0               0                0               0        0.0500002        -18.9056        0.0710639        -24.6548
75.72                          0               0                0               0         0.130574         -30.136         0.988723        -121.449
                               0               0                0               0         0.988818        -121.474         0.130507        -30.1312
                               0               0                0               0        0.0653371        -26.0667        0.0491094         -21.309
                               0               0                0               0        0.0490884        -21.3536        0.0654519        -26.0257
75.765                         0               0                0               0         0.129088        -31.9656         0.989436        -123.128
                               0               0                0               0         0.989554        -123.157         0.129014        -31.9602
                               0               0                0               0        0.0595075        -27.4296        0.0480954         -23.835
                               0               0                0               0        0.0480756        -23.8835        0.0596226        -27.3845
75.81                          0               0                0               0         0.127392        -33.8351         0.990104        -124.849
                               0               0                0               0         0.990228         -124.88         0.127311        -33.8296
                               0               0                0               0        0.0534709        -28.7516        0.0469804        -26.4384
                               0               0                0               0        0.0469639        -26.4888        0.0535869        -28.7012
75.855                         0               0                0               0         0.125504        -35.7396         0.990705        -126.609
                               0               0                0               0         0.990816         -126.64         0.125417        -35.7348
                               0               0                0               0        0.0472407        -29.9879        0.0457677         -29.114
                               0               0                0               0        0.0457564        -29.1639        0.0473582        -29.9309
75.9                           0               0                0               0         0.123439        -37.6743         0.991221        -128.406
                               0               0                0               0         0.991299        -128.433         0.123346        -37.6714
                               0               0                0               0        0.0408333        -31.0679        0.0444618        -31.8574
                               0               0                0               0        0.0444577        -31.9039        0.0409533        -31.0024
75.945                         0               0                0               0          0.12121        -39.6344         0.991643        -130.234
                               0               0                0               0         0.991669        -130.256         0.121111        -39.6351
                               0               0                0               0         0.034269        -31.8686        0.0430685        -34.6657
                               0               0                0               0        0.0430728        -34.7055        0.0343924        -31.7927
75.99                          0               0                0               0         0.118828        -41.6156         0.991967        -132.092
                               0               0                0               0         0.991927        -132.106         0.118724         -41.622
                               0               0                0               0        0.0275732        -32.1511        0.0415947        -37.5375
                               0               0                0               0         0.041608         -37.567        0.0277012        -32.0629
76.035                         0               0                0               0         0.116302        -43.6135           0.9922        -133.976
                               0               0                0               0         0.992089        -133.978         0.116193        -43.6285
                               0               0                0               0        0.0207831        -31.3674        0.0400485        -40.4736
                               0               0                0               0          0.04007        -40.4888        0.0209171        -31.2684
76.08                          0               0                0               0         0.113637        -45.6245         0.992362        -135.879
                               0               0                0               0         0.992185         -135.87         0.113526        -45.6516
                               0               0                0               0        0.0139731        -27.9094        0.0384382        -43.4771
                               0               0                0               0        0.0384659        -43.4739         0.014114        -27.8217
76.125                         0               0                0               0         0.110839        -47.6459         0.992488        -137.799
                               0               0                0               0         0.992262        -137.779         0.110728        -47.6894
                               0               0                0               0       0.00742592        -14.4948        0.0367731        -46.5543
                               0               0                0               0        0.0368033        -46.5283       0.00757059          -14.65
76.17                          0               0                0               0         0.107909        -49.6766         0.992624         -139.73
                               0               0                0               0         0.992378        -139.701         0.107802        -49.7416
                               0               0                0               0       0.00394607         54.2873        0.0350624        -49.7143
                               0               0                0               0        0.0350899        -49.6614       0.00397301          52.168
76.215                         0               0                0               0         0.104851        -51.7178          0.99283        -141.667
                               0               0                0               0         0.992602        -141.635         0.104754        -51.8098
                               0               0                0               0       0.00891787         104.834        0.0333156          -52.97
                               0               0                0               0        0.0333336        -52.8866       0.00881132         104.146
76.26                          0               0                0               0         0.101667        -53.7742         0.993171        -143.605
                               0               0                0               0         0.993001        -143.577         0.101591        -53.8988
                               0               0                0               0        0.0157839         114.507        0.0315421        -56.3374
                               0               0                0               0        0.0315429        -56.2214         0.015654         114.227
76.305                         0               0                0               0        0.0983689        -55.8554          0.99371        -145.539
                               0               0                0               0         0.993629        -145.523        0.0983257        -56.0166
                               0               0                0               0        0.0229271          117.17        0.0297514        -59.8359
                               0               0                0               0        0.0297268        -59.6874        0.0227892         117.024
76.35                          0               0                0               0        0.0949768        -57.9759         0.994487        -147.468
                               0               0                0               0         0.994511        -147.471         0.094983        -58.1744
                               0               0                0               0        0.0301571         117.727        0.0279526        -63.4875
                               0               0                0               0        0.0278952        -63.3102        0.0300166         117.644
76.395                         0               0                0               0        0.0915324        -60.1535         0.995503        -149.389
                               0               0                0               0         0.995625        -149.417        0.0916036        -60.3834
                               0               0                0               0        0.0374138         117.387        0.0261549        -67.3157
                               0               0                0               0        0.0260593        -67.1182        0.0372735         117.339
76.44                          0               0                0               0        0.0881027         -62.401         0.996699        -151.303
                               0               0                0               0         0.996891        -151.355        0.0882475        -62.6479
                               0               0                0               0        0.0446602         116.577        0.0243669        -71.3443
                               0               0                0               0        0.0242315        -71.1402        0.0445218         116.551
76.485                         0               0                0               0        0.0847765        -64.7112         0.997948        -153.211
                               0               0                0               0         0.998167        -153.283        0.0849872        -64.9539
                               0               0                0               0        0.0518628         115.478        0.0225968        -75.5953
                               0               0                0               0        0.0224249        -75.4022        0.0517268         115.465
76.53                          0               0                0               0        0.0816402        -67.0399         0.999061        -155.113
                               0               0                0               0         0.999267        -155.196        0.0818889        -67.2582
                               0               0                0               0        0.0589873         114.171        0.0208517         -80.087
                               0               0                0               0        0.0206523        -79.9233        0.0588534         114.164
76.575                         0               0                0               0        0.0787396        -69.3032         0.999819        -157.009
                               0               0                0               0         0.999983        -157.092        0.0789861        -69.4888
                               0               0                0               0        0.0659986         112.695        0.0191375        -84.8334
                               0               0                0               0        0.0189242        -84.7119        0.0658659          112.69
76.62                          0               0                0               0        0.0760546        -71.4005                1        -158.898
                               0               0                0               0                1        -158.971        0.0762639        -71.5614
                               0               0                0               0        0.0728634         111.071        0.0174584        -89.8438
                               0               0                0               0        0.0172473        -89.7656        0.0727308         111.065
76.665                         0               0                0               0        0.0735152        -73.2504         0.999462        -160.776
                               0               0                0               0         0.999528        -160.832        0.0736703        -73.4044
                               0               0                0               0        0.0795519         109.313        0.0158175        -95.1274
                               0               0                0               0        0.0156234        -95.0761        0.0794186         109.304
76.71                          0               0                0               0        0.0710441        -74.8102         0.998081        -162.638
                               0               0                0               0         0.998113        -162.676        0.0711462        -74.9746
                               0               0                0               0        0.0860391         107.437        0.0142173        -100.699
                               0               0                0               0        0.0140506        -100.642        0.0859044         107.425
76.755                         0               0                0               0        0.0685923        -76.0703         0.995835        -164.481
                               0               0                0               0         0.995848        -164.502         0.068652        -76.2547
                               0               0                0               0        0.0923039         105.463         0.012661        -106.593
                               0               0                0               0         0.012526        -106.488         0.092168         105.447
76.8                           0               0                0               0        0.0661488        -77.0366         0.992757        -166.302
                               0               0                0               0         0.992759        -166.311        0.0661784        -77.2428
                               0               0                0               0        0.0983287         103.413        0.0111545        -112.879
                               0               0                0               0        0.0110492        -112.682        0.0981919         103.394
76.845                         0               0                0               0        0.0637325        -77.7179         0.988919        -168.098
                               0               0                0               0          0.98891          -168.1        0.0637418        -77.9425
                               0               0                0               0         0.104099          101.31       0.00970768        -119.684
                               0               0                0               0       0.00962564        -119.364         0.103962         101.291
76.89                          0               0                0               0        0.0613797        -78.1212         0.984422        -169.869
                               0               0                0               0         0.984395        -169.869        0.0613756        -78.3582
                               0               0                0               0         0.109603         99.1806       0.00833626         -127.23
                               0               0                0               0       0.00826902        -126.777         0.109466         99.1601
76.935                         0               0                0               0        0.0591342        -78.2526         0.979371        -171.612
                               0               0                0               0         0.979315        -171.615        0.0591217        -78.4954
                               0               0                0               0         0.114831         97.0452       0.00706322        -135.873
                               0               0                0               0       0.00700245        -135.304         0.114696         97.0248
76.98                          0               0                0               0        0.0570406        -78.1209         0.973874        -173.328
                               0               0                0               0         0.973778        -173.337        0.0570234        -78.3636
                               0               0                0               0         0.119781         94.9231       0.00592163        -146.155
                               0               0                0               0       0.00586084        -145.525         0.119648         94.9033
77.025                         0               0                0               0          0.05514        -77.7414         0.968032        -175.017
                               0               0                0               0         0.967888        -175.034        0.0551212        -77.9794
                               0               0                0               0         0.124453         92.8295        0.0049588        -158.791
                               0               0                0               0       0.00489465        -158.205         0.124322         92.8106
77.07                          0               0                0               0        0.0534673        -77.1393         0.961939        -176.679
                               0               0                0               0         0.961739        -176.703        0.0534496        -77.3696
                               0               0                0               0          0.12885          90.776       0.00423896        -174.404
                               0               0                0               0       0.00417257        -174.022         0.128722          90.758
77.115                         0               0                0               0        0.0520485        -76.3507         0.955675        -178.314
                               0               0                0               0         0.955421        -178.346        0.0520344         -76.572
                               0               0                0               0          0.13298          88.771        0.0038316         167.287
                               0               0                0               0       0.00376897          167.32         0.132856         88.7538
77.16                          0               0                0               0           0.0509        -75.4223         0.949313        -179.923
                               0               0                0               0         0.949009         -179.96        0.0508912        -75.6351
                               0               0                0               0         0.136856           86.82       0.00376944         148.302
                               0               0                0               0       0.00371802         147.992         0.136734         86.8034
77.205                         0               0                0               0        0.0500271        -74.4087         0.942915         178.494