! TOUCHSTONE file generated by CST MICROWAVE STUDIO
! Date and time: Sun Jun 20 22:37:30 2021
! Project name: HIPS_d_sweep.cst
! Parameters = {fmax=120; fmin=75; b=0.46; d=21.3; a=0.63; phi=0; theta=0}
! Header version: 2018
! Port assignment regex: !\s*Touchstone port\s*([0-9]+)\s*=\s*(CST MWS port|CST DS port)\s*([0-9]+|Zmin|Zmax)\s*\(\"(.*)\"\)(\s*mode\s*([0-9]+))?.*
! Touchstone port assignment:
! Touchstone port 1 = CST MWS port Zmin ("") mode 1
! Touchstone port 2 = CST MWS port Zmin ("") mode 2
! Touchstone port 3 = CST MWS port Zmax ("") mode 1
! Touchstone port 4 = CST MWS port Zmax ("") mode 2
! S-Parameters are not renormalized. Unphysical impedance of 0 will be written to the file.
# GHz S MA R 0
75                             0               0                0               0        0.0997342        -34.2322         0.993352        -125.218
                               0               0                0               0         0.993306        -125.237        0.0997666        -34.1716
                               0               0                0               0        0.0464216        -30.3522        0.0402069        -28.8124
                               0               0                0               0        0.0402193        -28.8589        0.0465197        -30.4513
75.045                         0               0                0               0         0.103471        -35.0317         0.993147        -125.931
                               0               0                0               0          0.99311         -125.95         0.103521         -34.963
                               0               0                0               0        0.0440512        -30.5667        0.0406224        -29.7222
                               0               0                0               0        0.0406463        -29.7719        0.0441602        -30.6568
75.09                          0               0                0               0         0.106882        -35.9005         0.992877        -126.723
                               0               0                0               0         0.992836        -126.743         0.106929        -35.8316
                               0               0                0               0        0.0414309        -30.7712        0.0409262        -30.7409
                               0               0                0               0        0.0409509        -30.7929         0.041539        -30.8716
75.135                         0               0                0               0         0.109931        -36.8402         0.992589        -127.592
                               0               0                0               0         0.992537        -127.613         0.109962        -36.7774
                               0               0                0               0        0.0385542        -30.9487        0.0411139        -31.8833
                               0               0                0               0        0.0411317        -31.9368        0.0386531        -31.0748
75.18                          0               0                0               0         0.112587        -37.8521         0.992318        -128.535
                               0               0                0               0         0.992254        -128.557           0.1126           -37.8
                               0               0                0               0        0.0354161        -31.0704        0.0411824        -33.1614
                               0               0                0               0        0.0411883        -33.2155        0.0355005        -31.2338
75.225                         0               0                0               0          0.11483         -38.937         0.992091        -129.551
                               0               0                0               0         0.992019        -129.572         0.114827        -38.8988
                               0               0                0               0        0.0320132        -31.0876        0.0411292        -34.5849
                               0               0                0               0        0.0411212        -34.6381        0.0320813        -31.2973
75.27                          0               0                0               0         0.116648        -40.0951         0.991926        -130.635
                               0               0                0               0         0.991851        -130.656         0.116637        -40.0725
                               0               0                0               0        0.0283449        -30.9167        0.0409525        -36.1608
                               0               0                0               0         0.040931         -36.211        0.0283978        -31.1794
75.315                         0               0                0               0         0.118038        -41.3261         0.991832        -131.786
                               0               0                0               0         0.991761        -131.807          0.11803        -41.3195
                               0               0                0               0        0.0244151        -30.4052        0.0406511        -37.8938
                               0               0                0               0        0.0406187        -37.9382        0.0244566        -30.7278
75.36                          0               0                0               0         0.119006        -42.6287         0.991812        -133.001
                               0               0                0               0         0.991751         -133.02         0.119013        -42.6375
                               0               0                0               0        0.0202354        -29.2518        0.0402245        -39.7861
                               0               0                0               0        0.0401854        -39.8218        0.0202716         -29.646
75.405                         0               0                0               0         0.119564         -44.001         0.991862        -134.278
                               0               0                0               0         0.991818        -134.295         0.119598        -44.0237
                               0               0                0               0        0.0158349        -26.7816        0.0396727         -41.838
                               0               0                0               0        0.0396326         -41.862        0.0158726        -27.2759
75.45                          0               0                0               0          0.11973        -45.4404         0.991975        -135.614
                               0               0                0               0         0.991951        -135.628         0.119801         -45.475
                               0               0                0               0        0.0112933        -21.1622        0.0389969         -44.048
                               0               0                0               0         0.038962        -44.0578        0.0113372         -21.844
75.495                         0               0                0               0         0.119527        -46.9437         0.992138        -137.007
                               0               0                0               0         0.992135        -137.018         0.119643        -46.9878
                               0               0                0               0       0.00691217        -5.77183         0.038199        -46.4129
                               0               0                0               0        0.0381757        -46.4068       0.00695024        -6.97212
75.54                          0               0                0               0         0.118983        -48.5072         0.992335        -138.455
                               0               0                0               0         0.992353        -138.462         0.119147         -48.558
                               0               0                0               0       0.00441343         43.2819        0.0372826        -48.9288
                               0               0                0               0        0.0372768        -48.9062       0.00434833         41.1821
75.585                         0               0                0               0         0.118124        -50.1267         0.992551        -139.956
                               0               0                0               0         0.992585        -139.958         0.118337        -50.1814
                               0               0                0               0       0.00710863         93.3576        0.0362525        -51.5909
                               0               0                0               0         0.036269        -51.5529       0.00691866         92.6071
75.63                          0               0                0               0          0.11698        -51.7979         0.992767        -141.508
                               0               0                0               0          0.99281        -141.505         0.117239        -51.8537
                               0               0                0               0        0.0121843         108.981        0.0351153        -54.3949
                               0               0                0               0        0.0351573         -54.344        0.0119341          108.67
75.675                         0               0                0               0         0.115579         -53.516         0.992966        -143.109
                               0               0                0               0         0.993009        -143.101         0.115877        -53.5703
                               0               0                0               0        0.0178922         114.353        0.0338788         -57.337
                               0               0                0               0        0.0339476        -57.2772         0.017588         114.164
75.72                          0               0                0               0         0.113947        -55.2762         0.993132        -144.757
                               0               0                0               0         0.993163        -144.745         0.114276        -55.3267
                               0               0                0               0        0.0239075         116.351        0.0325524        -60.4155
                               0               0                0               0         0.032647        -60.3518        0.0235526         116.226
75.765                         0               0                0               0         0.112111        -57.0737         0.993251        -146.451
                               0               0                0               0         0.993261        -146.435         0.112459        -57.1181
                               0               0                0               0        0.0301285         116.869        0.0311468        -63.6308
                               0               0                0               0        0.0312637        -63.5693        0.0297305         116.792
75.81                          0               0                0               0         0.110094        -58.9035         0.993314        -148.187
                               0               0                0               0         0.993293        -148.169         0.110449        -58.9399
                               0               0                0               0        0.0365016         116.605        0.0296733        -66.9874
                               0               0                0               0        0.0298069        -66.9345        0.0360727         116.571
75.855                         0               0                0               0         0.107917        -60.7606         0.993314        -149.964
                               0               0                0               0         0.993256        -149.945         0.108266        -60.7873
                               0               0                0               0        0.0429887         115.878         0.028144        -70.4942
                               0               0                0               0        0.0282865        -70.4562        0.0425452          115.88
75.9                           0               0                0               0         0.105597        -62.6399         0.993252         -151.78
                               0               0                0               0         0.993157        -151.762         0.105928        -62.6557
                               0               0                0               0        0.0495587         114.851        0.0265708        -74.1665
                               0               0                0               0        0.0267132        -74.1493        0.0491195         114.883
75.945                         0               0                0               0         0.103151        -64.5362         0.993131        -153.631
                               0               0                0               0         0.993005        -153.616         0.103451        -64.5403
                               0               0                0               0        0.0561848          113.62        0.0249658        -78.0272
                               0               0                0               0         0.025098        -78.0359          0.05577         113.675
75.99                          0               0                0               0         0.100591        -66.4443         0.992958        -155.514
                               0               0                0               0         0.992817        -155.504          0.10085        -66.4363
                               0               0                0               0        0.0628444         112.244        0.0233407        -82.1092
                               0               0                0               0        0.0234525        -82.1484        0.0624728         112.313
76.035                         0               0                0               0        0.0979292        -68.3589         0.992746        -157.425
                               0               0                0               0         0.992611        -157.421         0.098139        -68.3389
                               0               0                0               0        0.0695178         110.762        0.0217071        -86.4578
                               0               0                0               0        0.0217889        -86.5322        0.0692059         110.835
76.08                          0               0                0               0        0.0951741        -70.2744         0.992506        -159.359
                               0               0                0               0         0.992406        -159.363        0.0953283        -70.2433
                               0               0                0               0        0.0761889         109.199        0.0200763        -91.1345
                               0               0                0               0        0.0201199        -91.2504        0.0759483         109.269
76.125                         0               0                0               0        0.0923329        -72.1852         0.992248        -161.312
                               0               0                0               0         0.992213        -161.324        0.0924285        -72.1446
                               0               0                0               0        0.0828441         107.572        0.0184604         -96.222
                               0               0                0               0        0.0184603        -96.3899        0.0826807         107.632
76.17                          0               0                0               0        0.0894116        -74.0859         0.991978        -163.276
                               0               0                0               0         0.992033        -163.296        0.0894494        -74.0383
                               0               0                0               0        0.0894716         105.893         0.016873        -101.831
                               0               0                0               0        0.0168272        -102.069        0.0893848          105.94
76.215                         0               0                0               0        0.0864155        -75.9711         0.991695        -165.246
                               0               0                0               0         0.991854        -165.273        0.0863999        -75.9197
                               0               0                0               0        0.0960613         104.171        0.0153308        -108.111
                               0               0                0               0        0.0152422        -108.447        0.0960436         104.202
76.26                          0               0                0               0        0.0833501        -77.8358         0.991389        -167.216
                               0               0                0               0         0.991654        -167.248          0.08329        -77.7848
                               0               0                0               0         0.102603          102.41        0.0138564        -115.258
                               0               0                0               0        0.0137342        -115.733         0.102641         102.427
76.305                         0               0                0               0        0.0802217        -79.6763         0.991046        -169.178
                               0               0                0               0         0.991396        -169.213        0.0801304        -79.6301
                               0               0                0               0         0.109087         100.615         0.012482         -123.52
                               0               0                0               0        0.0123428        -124.184         0.109161         100.621
76.35                          0               0                0               0        0.0770399        -81.4903         0.990644        -171.128
                               0               0                0               0         0.991041        -171.163        0.0769347         -81.453
                               0               0                0               0         0.115502         98.7897         0.011254        -133.183
                               0               0                0               0        0.0111217         -134.07         0.115588         98.7915
76.395                         0               0                0               0         0.073819        -83.2774         0.990167        -173.061
                               0               0                0               0         0.990557        -173.093        0.0737203        -83.2517
                               0               0                0               0         0.121833         96.9394        0.0102376        -144.495
                               0               0                0               0        0.0101394        -145.578         0.121906         96.9427
76.44                          0               0                0               0        0.0705817        -85.0393         0.989603        -174.974
                               0               0                0               0         0.989925        -175.001        0.0705105        -85.0246
                               0               0                0               0         0.128065         95.0699       0.00951405        -157.482
                               0               0                0               0       0.00947129        -158.615         0.128098         95.0808
76.485                         0               0                0               0         0.067362         -86.778         0.988957        -176.865
                               0               0                0               0         0.989156        -176.886        0.0673359        -86.7692
                               0               0                0               0         0.134175         93.1895       0.00916177        -171.684
                               0               0                0               0       0.00917658        -172.612         0.134144          93.212
76.53                          0               0                0               0        0.0642079        -88.4912         0.988253        -178.737
                               0               0                0               0         0.988295        -178.751        0.0642352        -88.4794
                               0               0                0               0         0.140129         91.3084       0.00921773         173.925
                               0               0                0               0        0.0092674         173.416         0.140022         91.3434
76.575                         0               0                0               0        0.0611809        -90.1648         0.987527         179.404
                               0               0                0               0         0.987418         179.398        0.0612548         -90.141
                               0               0                0               0         0.145882         89.4385       0.00964286         160.528
                               0               0                0               0       0.00969504         160.438         0.145704         89.4828
76.62                          0               0                0               0        0.0583493        -91.7639         0.986826         177.549
                               0               0                0               0         0.986633         177.546        0.0584446        -91.7282
                               0               0                0               0         0.151371         87.5914        0.0103272         148.867
                               0               0                0               0        0.0103686         148.989         0.151157         87.6389
76.665                         0               0                0               0        0.0557795        -93.2343         0.986209         175.683
                               0               0                0               0         0.986076         175.677        0.0558527        -93.2047
                               0               0                0               0         0.156521         85.7786        0.0111289         139.085
                               0               0                0               0         0.011188          139.13         0.156343         85.8207
76.71                          0               0                0               0        0.0535337        -94.5345         0.985831         173.799
                               0               0                0               0         0.986006         173.784        0.0535197        -94.5428
                               0               0                0               0         0.161279         84.0194        0.0119041         131.117
                               0               0                0               0        0.0120655         130.658         0.161236         84.0377
76.755                         0               0                0               0        0.0516661        -95.7692         0.986033         171.923
                               0               0                0               0         0.986662         171.914        0.0514648        -95.7884
                               0               0                0               0         0.165751         82.3571        0.0126341         126.026
                               0               0                0               0        0.0129224         123.337         0.165864         82.2992
76.8                           0               0                0               0        0.0498254        -97.5167         0.986228         170.156
                               0               0                0               0         0.986593         170.172        0.0495213        -97.2269
                               0               0                0               0         0.170573         80.7083        0.0146111         120.062
                               0               0                0               0         0.013619         117.403         0.170418         80.5836
76.845                         0               0                0               0        0.0465696        -98.6637         0.983496         168.505
                               0               0                0               0         0.983314         168.499        0.0466447        -98.6135
                               0               0                0               0         0.175206           78.66        0.0153617         111.464
                               0               0                0               0        0.0154179         111.665         0.175028         78.6986
76.89                          0               0                0               0        0.0440364        -97.5779          0.97801         166.812
                               0               0                0               0         0.977823         166.789        0.0438196        -97.6155
                               0               0                0               0         0.178599         76.5636        0.0159385          105.37
                               0               0                0               0        0.0158207         105.152         0.178716         76.5856
76.935                         0               0                0               0        0.0423948        -96.3041           0.9718         165.079
                               0               0                0               0         0.971654         165.059        0.0422603        -96.1702
                               0               0                0               0          0.18146         74.5823        0.0165231         100.087
                               0               0                0               0        0.0164549         100.103         0.181484         74.5787
76.98                          0               0                0               0        0.0410642        -94.9666         0.965477         163.354
                               0               0                0               0         0.965307         163.342        0.0410566        -94.8431
                               0               0                0               0         0.184042         72.6641        0.0170855         95.2922
                               0               0                0               0        0.0170751          95.472         0.183943         72.6772
77.025                         0               0                0               0        0.0399572        -93.4712         0.959124         161.657
                               0               0                0               0         0.958912         161.652        0.0400332        -93.4135
                               0               0                0               0         0.186378         70.7872        0.0176124         90.8956
                               0               0                0               0        0.0176476         91.1866         0.186205         70.8227
77.07                          0               0                0               0        0.0390801        -91.8179         0.952766         159.994
                               0               0                0               0         0.952518         159.995        0.0392026        -91.8297
                               0               0                0               0         0.188477         68.9477        0.0180986         86.8557
                               0               0                0               0        0.0181656         87.2182         0.188265         68.9995
77.115                         0               0                0               0        0.0384461        -90.0554         0.946429         158.364
                               0               0                0               0          0.94616         158.368        0.0385889        -90.1241
                               0               0                0               0         0.190344         67.1472        0.0185428         83.1443
                               0               0                0               0        0.0186293         83.5472         0.190116         67.2078
77.16                          0               0                0               0        0.0380604        -88.2535         0.940142         156.766
                               0               0                0               0         0.939862         156.771        0.0382054        -88.3613
                               0               0                0               0         0.191988         65.3878         0.018946         79.7374
                               0               0                0               0        0.0190414         80.1573         0.191759         65.4513
77.205                         0               0                0               0        0.0379172        -86.4879          0.93393         155.197