! TOUCHSTONE file generated by CST MICROWAVE STUDIO
! Date and time: Sun Jun 20 22:38:11 2021
! Project name: HIPS_d_sweep.cst
! Parameters = {fmax=120; fmin=75; b=0.46; d=25.05; a=0.63; phi=0; theta=0}
! Header version: 2018
! Port assignment regex: !\s*Touchstone port\s*([0-9]+)\s*=\s*(CST MWS port|CST DS port)\s*([0-9]+|Zmin|Zmax)\s*\(\"(.*)\"\)(\s*mode\s*([0-9]+))?.*
! Touchstone port assignment:
! Touchstone port 1 = CST MWS port Zmin ("") mode 1
! Touchstone port 2 = CST MWS port Zmin ("") mode 2
! Touchstone port 3 = CST MWS port Zmax ("") mode 1
! Touchstone port 4 = CST MWS port Zmax ("") mode 2
! S-Parameters are not renormalized. Unphysical impedance of 0 will be written to the file.
# GHz S MA R 0
75                             0               0                0               0         0.165479         75.4848         0.967022         168.396
                               0               0                0               0         0.967167         168.385         0.165693         75.4296
                               0               0                0               0         0.184621         76.0317        0.0531342         41.5154
                               0               0                0               0        0.0530029         41.4524          0.18472         76.0197
75.045                         0               0                0               0         0.161031         74.6448          0.96753         167.592
                               0               0                0               0         0.967673          167.58         0.161247         74.5727
                               0               0                0               0         0.186024         75.3394        0.0522503         40.8674
                               0               0                0               0        0.0521203         40.8019         0.186118         75.3279
75.09                          0               0                0               0         0.157039         73.7031         0.967923         166.702
                               0               0                0               0         0.968077         166.689         0.157253         73.6271
                               0               0                0               0         0.187547         74.5507        0.0514839         40.0882
                               0               0                0               0        0.0513533         40.0192         0.187641         74.5393
75.135                         0               0                0               0         0.153489         72.6678         0.968202         165.727
                               0               0                0               0         0.968378         165.715         0.153702          72.596
                               0               0                0               0         0.189189         73.6681        0.0508291         39.1806
                               0               0                0               0        0.0506968         39.1074         0.189286         73.6564
75.18                          0               0                0               0          0.15037          71.546         0.968374         164.671
                               0               0                0               0         0.968575         164.659         0.150582         71.4827
                               0               0                0               0         0.190944         72.6938        0.0502797         38.1469
                               0               0                0               0         0.050145         38.0686         0.191044         72.6818
75.225                         0               0                0               0          0.14767          70.344         0.968443         163.535
                               0               0                0               0         0.968669         163.524         0.147882         70.2903
                               0               0                0               0         0.192802         71.6305        0.0498289         36.9886
                               0               0                0               0        0.0496917         36.9046         0.192906         71.6183
75.27                          0               0                0               0         0.145378         69.0674         0.968414         162.322
                               0               0                0               0         0.968665         162.311          0.14559          69.022
                               0               0                0               0         0.194749         70.4809        0.0494696         35.7067
                               0               0                0               0        0.0493298         35.6164         0.194856         70.4685
75.315                         0               0                0               0         0.143482         67.7207         0.968294         161.033
                               0               0                0               0         0.968569         161.022         0.143695         67.6812
                               0               0                0               0         0.196768         69.2475        0.0491943         34.3017
                               0               0                0               0        0.0490521         34.2047         0.196878         69.2351
75.36                          0               0                0               0         0.141968          66.308         0.968092         159.671
                               0               0                0               0         0.968387          159.66         0.142184         66.2712
                               0               0                0               0         0.198839         67.9331        0.0489952         32.7739
                               0               0                0               0        0.0488506         32.6698          0.19895         67.9209
75.405                         0               0                0               0         0.140826         64.8329         0.967815         158.238
                               0               0                0               0         0.968128         158.227         0.141045         64.7954
                               0               0                0               0          0.20094         66.5407        0.0488641         31.1233
                               0               0                0               0        0.0487171         31.0121         0.201051         66.5289
75.45                          0               0                0               0         0.140043         63.2984         0.967475         156.737
                               0               0                0               0         0.967801         156.725         0.140264         63.2574
                               0               0                0               0         0.203047         65.0732        0.0487924         29.3499
                               0               0                0               0        0.0486428         29.2317         0.203157         65.0619
75.495                         0               0                0               0         0.139604         61.7075          0.96708         155.169
                               0               0                0               0         0.967416         155.156         0.139828          61.661
                               0               0                0               0         0.205133          63.534        0.0487714         27.4539
                               0               0                0               0        0.0486186         27.3293         0.205242         63.5232
75.54                          0               0                0               0         0.139495          60.063         0.966642         153.538
                               0               0                0               0         0.966984         153.525         0.139721         60.0099
                               0               0                0               0         0.207174         61.9263        0.0487917         25.4355
                               0               0                0               0        0.0486353         25.3054         0.207281         61.9162
75.585                         0               0                0               0         0.139703         58.3678          0.96617         151.847
                               0               0                0               0         0.966515         151.832         0.139929          58.308
                               0               0                0               0         0.209141         60.2538         0.048844         23.2954
                               0               0                0               0        0.0486833         23.1612         0.209248         60.2443
75.63                          0               0                0               0         0.140209         56.6251         0.965677         150.098
                               0               0                0               0         0.966019         150.083         0.140435         56.5594
                               0               0                0               0          0.21101         58.5204        0.0489186         21.0345
                               0               0                0               0         0.048753          20.898         0.211115         58.5115
75.675                         0               0                0               0            0.141         54.8382         0.965171         148.295
                               0               0                0               0         0.965506         148.279         0.141223         54.7681
                               0               0                0               0         0.212753         56.7299        0.0490058         18.6542
                               0               0                0               0        0.0488346          18.518         0.212859         56.7215
75.72                          0               0                0               0         0.142056         53.0109         0.964662         146.441
                               0               0                0               0         0.964986         146.425         0.142277         52.9382
                               0               0                0               0         0.214346         54.8865        0.0490958         16.1564
                               0               0                0               0        0.0489188         16.0233         0.214453         54.8784
75.765                         0               0                0               0         0.143362          51.147         0.964159          144.54
                               0               0                0               0         0.964467         144.524         0.143578         51.0738
                               0               0                0               0         0.215766         52.9945        0.0491789         13.5435
                               0               0                0               0        0.0489963         13.4167         0.215874         52.9863
75.81                          0               0                0               0         0.144899         49.2507         0.963668         142.595
                               0               0                0               0         0.963955         142.579         0.145111         49.1789
                               0               0                0               0         0.216991         51.0579        0.0492459         10.8183
                               0               0                0               0        0.0490581         10.7011         0.217101         51.0496
75.855                         0               0                0               0         0.146649         47.3261         0.963198          140.61
                               0               0                0               0         0.963459         140.594         0.146856         47.2573
                               0               0                0               0         0.218001         49.0811        0.0492879         7.98388
                               0               0                0               0         0.049096         7.87977         0.218112         49.0724
75.9                           0               0                0               0         0.148597         45.3774         0.962752         138.588
                               0               0                0               0         0.962985         138.573         0.148798         45.3126
                               0               0                0               0         0.218777         47.0683        0.0492966         5.04382
                               0               0                0               0        0.0491023         4.95595          0.21889         47.0591
75.945                         0               0                0               0         0.150724         43.4085         0.962336         136.534
                               0               0                0               0         0.962536         136.519         0.150919         43.3482
                               0               0                0               0         0.219302         45.0237        0.0492645         2.00173
                               0               0                0               0          0.04907         1.93284         0.219417         45.0137
75.99                          0               0                0               0         0.153013         41.4231         0.961953         134.451
                               0               0                0               0         0.962118         134.437         0.153203         41.3674
                               0               0                0               0         0.219564         42.9514        0.0491852        -1.13868
                               0               0                0               0        0.0489929         -1.1865          0.21968         42.9406
76.035                         0               0                0               0         0.155448         39.4243         0.961606         132.342
                               0               0                0               0         0.961736          132.33         0.155632          39.373
                               0               0                0               0         0.219549         40.8555         0.049053        -4.37378
                               0               0                0               0        0.0488655        -4.39933         0.219665         40.8437
76.08                          0               0                0               0         0.158014         37.4151         0.961298         130.212
                               0               0                0               0         0.961393           130.2         0.158193         37.3676
                               0               0                0               0         0.219246         38.7399        0.0488636         -7.7002
                               0               0                0               0        0.0486835        -7.70326         0.219361         38.7272
76.125                         0               0                0               0         0.160695         35.3977          0.96103         128.063
                               0               0                0               0         0.961092         128.053         0.160868         35.3534
                               0               0                0               0         0.218647         36.6086        0.0486138        -11.1149
                               0               0                0               0        0.0484432        -11.0964         0.218761          36.595
76.17                          0               0                0               0         0.163475         33.3741         0.960805         125.899
                               0               0                0               0         0.960837          125.89         0.163644         33.3325
                               0               0                0               0         0.217745         34.4655        0.0483017        -14.6155
                               0               0                0               0        0.0481418        -14.5772         0.217858         34.4511
76.215                         0               0                0               0          0.16634         31.3459         0.960625         123.724
                               0               0                0               0         0.960631         123.716         0.166506         31.3067
                               0               0                0               0         0.216536         32.3146        0.0479266           -18.2
                               0               0                0               0        0.0477776        -18.1449         0.216648         32.2994
76.26                          0               0                0               0         0.169277         29.3143         0.960491          121.54
                               0               0                0               0         0.960475         121.533          0.16944         29.2775
                               0               0                0               0         0.215019         30.1595        0.0474891        -21.8674
                               0               0                0               0        0.0473496         -21.799         0.215128         30.1437
76.305                         0               0                0               0          0.17227         27.2804         0.960406          119.35
                               0               0                0               0         0.960372         119.344          0.17243         27.2464
                               0               0                0               0         0.213192         28.0043        0.0469907        -25.6171
                               0               0                0               0        0.0468579        -25.5394           0.2133         27.9877
76.35                          0               0                0               0         0.175306         25.2454         0.960369         117.158
                               0               0                0               0         0.960322         117.153         0.175464          25.215
                               0               0                0               0          0.21106         25.8525        0.0464342        -29.4496
                               0               0                0               0        0.0463034        -29.3662         0.211166         25.8353
76.395                         0               0                0               0         0.178371         23.2108         0.960382         114.967
                               0               0                0               0         0.960323         114.962         0.178525         23.1848
                               0               0                0               0         0.208628         23.7078        0.0458229         -33.366
                               0               0                0               0        0.0456885        -33.2797         0.208733         23.6899
76.44                          0               0                0               0          0.18145         21.1785         0.960443         112.779
                               0               0                0               0         0.960373         112.775         0.181599         21.1575
                               0               0                0               0         0.205905         21.5733        0.0451604        -37.3676
                               0               0                0               0        0.0450162        -37.2801         0.206009         21.5547
76.485                         0               0                0               0          0.18453         19.1509          0.96055         110.597
                               0               0                0               0         0.960466         110.593         0.184671          19.135
                               0               0                0               0         0.202901         19.4521        0.0444501        -41.4564
                               0               0                0               0        0.0442913        -41.3668         0.203005         19.4328
76.53                          0               0                0               0         0.187593         17.1314         0.960696         108.424
                               0               0                0               0         0.960596          108.42         0.187726         17.1198
                               0               0                0               0         0.199632         17.3465        0.0436939        -45.6342
                               0               0                0               0        0.0435195        -45.5391         0.199735         17.3266
76.575                         0               0                0               0         0.190625         15.1235         0.960873         106.262
                               0               0                0               0         0.960755         106.258         0.190748         15.1142
                               0               0                0               0         0.196112         15.2583        0.0428911        -49.9031
                               0               0                0               0         0.042708        -49.7955         0.196214          15.238
76.62                          0               0                0               0         0.193609         13.1304          0.96107         104.113
                               0               0                0               0         0.960941          104.11          0.19373         13.1205
                               0               0                0               0          0.19236         13.1892        0.0420364        -54.2653
                               0               0                0               0        0.0418649         -54.135          0.19246         13.1684
76.665                         0               0                0               0         0.196533         11.1529         0.961277         101.978
                               0               0                0               0         0.961156         101.978          0.19667         11.1401
                               0               0                0               0         0.188389         11.1413        0.0411175        -58.7245
                               0               0                0               0        0.0409976        -58.5594         0.188486         11.1194
76.71                          0               0                0               0         0.199394          9.1852         0.961479         99.8563
                               0               0                0               0         0.961413         99.8628         0.199578         9.17092
                               0               0                0               0         0.184206          9.1194        0.0401131         -63.288
                               0               0                0               0        0.0401109        -63.0778         0.184299         9.09418
76.755                         0               0                0               0         0.202194         7.21007         0.961639         97.7465
                               0               0                0               0           0.9617         97.7649         0.202464         7.20361
                               0               0                0               0         0.179806         7.13448        0.0389857        -67.9734
                               0               0                0               0        0.0391996        -67.7116         0.179894         7.10168
76.8                           0               0                0               0         0.204916         5.19656         0.961593         95.6515
                               0               0                0               0         0.961809         95.6853         0.205276         5.21525
                               0               0                0               0         0.175156           5.207        0.0376322         -72.848
                               0               0                0               0        0.0382371         -72.488         0.175236          5.1617
76.845                         0               0                0               0         0.207397         3.11728         0.960689         93.5897
                               0               0                0               0          0.96089         93.6277         0.207724          3.1558
                               0               0                0               0         0.170193         3.36536         0.037542        -84.8029
                               0               0                0               0        0.0371575        -77.3919         0.170261         3.31006
76.89                          0               0                0               0         0.209061        0.908209          0.95732         91.5751
                               0               0                0               0         0.957358         91.5939         0.209376        0.897072
                               0               0                0               0         0.164794         1.63153        0.0356024        -82.5617
                               0               0                0               0        0.0357988        -82.3244         0.164871         1.59655
76.935                         0               0                0               0         0.210259        -1.60324         0.951059         89.5567
                               0               0                0               0         0.951089         89.5757         0.210583        -1.61522
                               0               0                0               0         0.158821        0.165416        0.0338781        -87.8234
                               0               0                0               0        0.0340627        -87.5885         0.158893        0.129758
76.98                          0               0                0               0         0.211435        -4.12647         0.944177         87.5438
                               0               0                0               0         0.944179         87.5791         0.211689        -4.15999
                               0               0                0               0         0.153085        -1.19822        0.0322083        -93.2446
                               0               0                0               0        0.0323552          -93.16         0.153633        -1.28621
77.025                         0               0                0               0         0.212257        -6.60365         0.937779         85.5805
                               0               0                0               0         0.937778         85.6144         0.212548        -6.63842
                               0               0                0               0         0.147017        -2.47306        0.0305434         -98.846
                               0               0                0               0        0.0306907          -98.73         0.147213        -2.55615
77.07                          0               0                0               0         0.212816        -9.05415         0.931736         83.6605
                               0               0                0               0         0.931751         83.6801         0.213159        -9.06836
                               0               0                0               0         0.140909        -3.61002        0.0289088        -104.645
                               0               0                0               0        0.0290579        -104.404          0.14097        -3.64784
77.115                         0               0                0               0          0.21321        -11.4846         0.925764         81.7683
                               0               0                0               0          0.92578         81.7729         0.213585        -11.4738
                               0               0                0               0         0.134887        -4.61993        0.0273371        -110.661
                               0               0                0               0         0.027487        -110.289         0.134888        -4.62154
77.16                          0               0                0               0         0.213485         -13.897         0.919697         79.8972
                               0               0                0               0         0.919697         79.8912         0.213869        -13.8669
                               0               0                0               0            0.129        -5.50957        0.0258566        -116.912
                               0               0                0               0        0.0260046        -116.443         0.128985        -5.48936
77.205                         0               0                0               0         0.213651        -16.2908         0.913482         78.0461