! TOUCHSTONE file generated by CST MICROWAVE STUDIO
! Date and time: Sun Jun 20 22:37:14 2021
! Project name: HIPS_d_sweep.cst
! Parameters = {fmax=120; fmin=75; b=0.46; d=19.55; a=0.63; phi=0; theta=0}
! Header version: 2018
! Port assignment regex: !\s*Touchstone port\s*([0-9]+)\s*=\s*(CST MWS port|CST DS port)\s*([0-9]+|Zmin|Zmax)\s*\(\"(.*)\"\)(\s*mode\s*([0-9]+))?.*
! Touchstone port assignment:
! Touchstone port 1 = CST MWS port Zmin ("") mode 1
! Touchstone port 2 = CST MWS port Zmin ("") mode 2
! Touchstone port 3 = CST MWS port Zmax ("") mode 1
! Touchstone port 4 = CST MWS port Zmax ("") mode 2
! S-Parameters are not renormalized. Unphysical impedance of 0 will be written to the file.
# GHz S MA R 0
75                             0               0                0               0         0.219579         165.696         0.966508         73.4952
                               0               0                0               0            0.966         73.4972         0.219625          165.62
                               0               0                0               0         0.113002        -8.56147        0.0729862         4.15027
                               0               0                0               0        0.0728653         4.11603         0.113041        -8.52374
75.045                         0               0                0               0         0.222688         164.852         0.967052         72.8359
                               0               0                0               0         0.966533         72.8339         0.222805         164.779
                               0               0                0               0         0.110986        -8.99386        0.0734051          3.1841
                               0               0                0               0        0.0732741         3.14889         0.111029         -8.9518
75.09                          0               0                0               0         0.225624         163.987         0.967217         72.1131
                               0               0                0               0         0.966696         72.1082         0.225791         163.919
                               0               0                0               0         0.108793        -9.44692        0.0737505         2.14729
                               0               0                0               0        0.0736135         2.11024         0.108838        -9.40146
75.135                         0               0                0               0         0.228354         163.097          0.96709          71.325
                               0               0                0               0         0.966572         71.3184         0.228551         163.033
                               0               0                0               0         0.106419        -9.92274         0.074018         1.03243
                               0               0                0               0        0.0738794        0.993083         0.106466        -9.87477
75.18                          0               0                0               0         0.230846         162.175         0.966755         70.4708
                               0               0                0               0         0.966242         70.4633         0.231056         162.114
                               0               0                0               0          0.10386         -10.423        0.0742044       -0.167671
                               0               0                0               0        0.0740679        -0.20941         0.103907        -10.3733
75.225                         0               0                0               0         0.233074         161.214         0.966293         69.5506
                               0               0                0               0         0.965785         69.5428         0.233282         161.155
                               0               0                0               0         0.101113        -10.9488         0.074307        -1.45979
                               0               0                0               0        0.0741761        -1.50369          0.10116        -10.8981
75.27                          0               0                0               0         0.235013         160.208         0.965776          68.565
                               0               0                0               0         0.965271         68.5573         0.235209          160.15
                               0               0                0               0        0.0981739        -11.5006         0.074324        -2.85005
                               0               0                0               0        0.0742018        -2.89564        0.0982208        -11.4494
75.315                         0               0                0               0         0.236648         159.152         0.965266         67.5155
                               0               0                0               0         0.964762         67.5081         0.236824         159.092
                               0               0                0               0        0.0950413        -12.0777        0.0742544         -4.3438
                               0               0                0               0        0.0741432        -4.39045        0.0950878        -12.0265
75.36                          0               0                0               0         0.237965         158.038         0.964815         66.4039
                               0               0                0               0         0.964312         66.3968         0.238117         157.976
                               0               0                0               0        0.0917132        -12.6784        0.0740979        -5.94539
                               0               0                0               0        0.0739991         -5.9924        0.0917594        -12.6273
75.405                         0               0                0               0          0.23896         156.863         0.964466         65.2324
                               0               0                0               0         0.963963         65.2254         0.239087         156.798
                               0               0                0               0        0.0881883        -13.2994        0.0738542        -7.65808
                               0               0                0               0         0.073769        -7.70477        0.0882343        -13.2486
75.45                          0               0                0               0         0.239631         155.623         0.964251         64.0036
                               0               0                0               0         0.963746         63.9965         0.239736         155.554
                               0               0                0               0         0.084466        -13.9357        0.0735236        -9.48396
                               0               0                0               0        0.0734522        -9.52972        0.0845118         -13.885
75.495                         0               0                0               0         0.239982         154.315          0.96419           62.72
                               0               0                0               0         0.963685         62.7126         0.240071         154.243
                               0               0                0               0         0.080546        -14.5795        0.0731066        -11.4239
                               0               0                0               0        0.0730487        -11.4682         0.080592        -14.5286
75.54                          0               0                0               0         0.240023         152.938         0.964295         61.3844
                               0               0                0               0          0.96379         61.3764           0.2401         152.864
                               0               0                0               0        0.0764294        -15.2202        0.0726036        -13.4775
                               0               0                0               0        0.0725583        -13.5201        0.0764757        -15.1686
75.585                         0               0                0               0         0.239766         151.494         0.964569         59.9997
                               0               0                0               0         0.964067         59.9907         0.239838         151.419
                               0               0                0               0         0.072118        -15.8427        0.0720149        -15.6432
                               0               0                0               0        0.0719811        -15.6839        0.0721648        -15.7897
75.63                          0               0                0               0         0.239224         149.984         0.965007         58.5685
                               0               0                0               0         0.964509         58.5583         0.239298         149.908
                               0               0                0               0        0.0676151        -16.4262         0.071341        -17.9183
                               0               0                0               0        0.0713173        -17.9571        0.0676627        -16.3709
75.675                         0               0                0               0         0.238414         148.411         0.965596         57.0937
                               0               0                0               0         0.965105         57.0819         0.238495         148.337
                               0               0                0               0        0.0629261        -16.9415        0.0705825        -20.2991
                               0               0                0               0        0.0705673        -20.3362        0.0629747        -16.8827
75.72                          0               0                0               0         0.237351         146.781         0.966321         55.5779
                               0               0                0               0         0.965838         55.5644         0.237444          146.71
                               0               0                0               0        0.0580587        -17.3478          0.06974         -22.781
                               0               0                0               0        0.0697319        -22.8165        0.0581086        -17.2841
75.765                         0               0                0               0         0.236054         145.097         0.967157         54.0238
                               0               0                0               0         0.966686         54.0084         0.236161         145.031
                               0               0                0               0        0.0530243        -17.5861        0.0688144        -25.3586
                               0               0                0               0         0.068812        -25.3928         0.053076         -17.516
75.81                          0               0                0               0         0.234538         143.367         0.968081         52.4338
                               0               0                0               0         0.967621         52.4165         0.234661         143.307
                               0               0                0               0        0.0478391        -17.5698        0.0678071        -28.0261
                               0               0                0               0        0.0678093        -28.0592        0.0478931        -17.4913
75.855                         0               0                0               0         0.232821         141.597         0.969062         50.8104
                               0               0                0               0         0.968617         50.7912          0.23296         141.544
                               0               0                0               0        0.0425267        -17.1663        0.0667199        -30.7773
                               0               0                0               0        0.0667259        -30.8094        0.0425837        -17.0773
75.9                           0               0                0               0          0.23092         139.794         0.970072         49.1562
                               0               0                0               0         0.969642         49.1353         0.231073         139.748
                               0               0                0               0        0.0371221        -16.1646        0.0655555         -33.606
                               0               0                0               0        0.0655648         -33.637         0.037183        -16.0627
75.945                         0               0                0               0          0.22885         137.963         0.971082         47.4736
                               0               0                0               0         0.970666         47.4512         0.229015         137.925
                               0               0                0               0        0.0316805        -14.2101         0.064317        -36.5059
                               0               0                0               0        0.0643296        -36.5359        0.0317466        -14.0932
75.99                          0               0                0               0         0.226627         136.112         0.972063         45.7653
                               0               0                0               0         0.971663         45.7415         0.226802         136.082
                               0               0                0               0        0.0262956        -10.6719        0.0630086        -39.4714
                               0               0                0               0        0.0630246        -39.5001        0.0263686        -10.5399
76.035                         0               0                0               0         0.224268         134.246         0.972991         44.0338
                               0               0                0               0         0.972605         44.0091         0.224448         134.224
                               0               0                0               0        0.0211447        -4.36622        0.0616349        -42.4975
                               0               0                0               0        0.0616548        -42.5245        0.0212268        -4.22669
76.08                          0               0                0               0         0.221787         132.371         0.973843          42.282
                               0               0                0               0         0.973472         42.2567         0.221969         132.356
                               0               0                0               0        0.0165991         6.91804        0.0602015        -45.5802
                               0               0                0               0         0.060226        -45.6051         0.016692         7.03108
76.125                         0               0                0               0           0.2192          130.49         0.974607         40.5128
                               0               0                0               0          0.97425         40.4874         0.219379         130.481
                               0               0                0               0        0.0134506         26.2489        0.0587145        -48.7167
                               0               0                0               0        0.0587442        -48.7389          0.01355         26.2392
76.17                          0               0                0               0         0.216521         128.607         0.975275         38.7295
                               0               0                0               0         0.974932         38.7042         0.216695         128.603
                               0               0                0               0        0.0129046         52.3975        0.0571806        -51.9057
                               0               0                0               0        0.0572161        -51.9248        0.0129919         52.1839
76.215                         0               0                0               0         0.213764         126.723          0.97585         36.9355
                               0               0                0               0          0.97552         36.9107         0.213932         126.724
                               0               0                0               0        0.0153203         75.0949        0.0556069        -55.1475
                               0               0                0               0        0.0556484        -55.1631        0.0153797         74.7974
76.26                          0               0                0               0         0.210944         124.842         0.976344         35.1345
                               0               0                0               0         0.976027         35.1102         0.211105         124.846
                               0               0                0               0          0.01967         89.1584        0.0540009        -58.4442
                               0               0                0               0        0.0540484        -58.4564        0.0197054         88.8899
76.305                         0               0                0               0         0.208076         122.962          0.97678         33.3301
                               0               0                0               0         0.976475         33.3063         0.208232         122.969
                               0               0                0               0        0.0249746          97.039        0.0523707        -61.7997
                               0               0                0               0        0.0524235        -61.8089        0.0249942         96.8185
76.35                          0               0                0               0         0.205176         121.084         0.977188         31.5262
                               0               0                0               0         0.976892         31.5027         0.205329         121.094
                               0               0                0               0        0.0307415          101.43        0.0507247        -65.2191
                               0               0                0               0        0.0507819        -65.2264         0.030751         101.249
76.395                         0               0                0               0          0.20226         119.209         0.977599         29.7261
                               0               0                0               0         0.977306         29.7026         0.202415          119.22
                               0               0                0               0        0.0367422         103.846        0.0490719        -68.7084
                               0               0                0               0        0.0491323        -68.7157        0.0367454         103.694
76.44                          0               0                0               0         0.199348         117.336         0.978033         27.9327
                               0               0                0               0         0.977741         27.9089         0.199507          117.35
                               0               0                0               0        0.0428606         105.082        0.0474218         -72.273
                               0               0                0               0        0.0474847        -72.2829        0.0428598          104.95
76.485                         0               0                0               0         0.196458         115.468         0.978494         26.1484
                               0               0                0               0         0.978196          26.124         0.196623         115.485
                               0               0                0               0        0.0490282         105.567        0.0457839        -75.9162
                               0               0                0               0        0.0458491        -75.9313        0.0490251         105.451
76.53                          0               0                0               0         0.193607         113.613         0.978947         24.3746
                               0               0                0               0         0.978641         24.3495         0.193779         113.633
                               0               0                0               0        0.0551981         105.545         0.044167        -79.6374
                               0               0                0               0        0.0442352        -79.6589        0.0551938         105.441
76.575                         0               0                0               0         0.190806         111.779         0.979318         22.6122
                               0               0                0               0         0.979007         22.5867         0.190983         111.803
                               0               0                0               0        0.0613329         105.157        0.0425773        -83.4298
                               0               0                0               0        0.0426499        -83.4565        0.0613279         105.063
76.62                          0               0                0               0         0.188058         109.981         0.979494          20.862
                               0               0                0               0         0.979186         20.8364         0.188235         110.006
                               0               0                0               0        0.0674004         104.488        0.0410175        -87.2806
                               0               0                0               0        0.0410954        -87.3078        0.0673949         104.402
76.665                         0               0                0               0         0.185351         108.234         0.979339         19.1252
                               0               0                0               0         0.979046         19.0996         0.185527          108.26
                               0               0                0               0        0.0733726         103.591        0.0394851        -91.1722
                               0               0                0               0        0.0395673         -91.192        0.0733662         103.512
76.71                          0               0                0               0         0.182667         106.554         0.978717         17.4031
                               0               0                0               0         0.978452         17.3775          0.18284         106.579
                               0               0                0               0        0.0792255         102.501        0.0379734         -95.086
                               0               0                0               0        0.0380568        -95.0899        0.0792176         102.429
76.755                         0               0                0               0         0.179984         104.956         0.977519         15.6971
                               0               0                0               0         0.977291         15.6714         0.180155         104.978
                               0               0                0               0        0.0849383         101.247        0.0364736         -99.006
                               0               0                0               0        0.0365538        -98.9875        0.0849285         101.181
76.8                           0               0                0               0         0.177283         103.449         0.975676          14.009
                               0               0                0               0         0.975489         13.9827         0.177455         103.468
                               0               0                0               0        0.0904931         99.8552        0.0349783        -102.921
                               0               0                0               0        0.0350514        -102.878        0.0904812         99.7941
76.845                         0               0                0               0         0.174561         102.038         0.973169         12.3399
                               0               0                0               0         0.973017         12.3127         0.174738         102.056
                               0               0                0               0        0.0958731         98.3512        0.0334846        -106.826
                               0               0                0               0        0.0335485        -106.762        0.0958596         98.2935
76.89                          0               0                0               0         0.171828         100.727         0.970017          10.691
                               0               0                0               0         0.969894         10.6625         0.172012         100.746
                               0               0                0               0         0.101063         96.7602        0.0319949         -110.72
                               0               0                0               0        0.0320502         -110.64         0.101048         96.7049
76.935                         0               0                0               0         0.169107         99.5132         0.966275         9.06301
                               0               0                0               0         0.966169         9.03314         0.169301          99.536
                               0               0                0               0         0.106047         95.1063         0.030517        -114.605
                               0               0                0               0        0.0305661        -114.516         0.106033         95.0526
76.98                          0               0                0               0         0.166429          98.394         0.962016         7.45656
                               0               0                0               0         0.961917         7.42534         0.166637         98.4235
                               0               0                0               0         0.110815         93.4114        0.0290625        -118.483
                               0               0                0               0        0.0291091        -118.396         0.110801         93.3586
77.025                         0               0                0               0          0.16383         97.3633         0.957323         5.87214
                               0               0                0               0         0.957222         5.83976         0.164053         97.4014
                               0               0                0               0         0.115356         91.6951        0.0276449        -122.361
                               0               0                0               0        0.0276928        -122.283         0.115344         91.6428
77.07                          0               0                0               0         0.161343         96.4133         0.952282         4.31019
                               0               0                0               0         0.952174         4.27696         0.161583         96.4609
                               0               0                0               0         0.119665         89.9738        0.0262781        -126.243
                               0               0                0               0        0.0263304        -126.183         0.119656         89.9217
77.115                         0               0                0               0         0.158997         95.5346         0.946976         2.77105
                               0               0                0               0         0.946857         2.73732         0.159253         95.5914
                               0               0                0               0         0.123742         88.2609        0.0249746         -130.14
                               0               0                0               0        0.0250336        -130.102         0.123735          88.209
77.16                          0               0                0               0         0.156811         94.7167         0.941479         1.25496
                               0               0                0               0         0.941351         1.22112         0.157084         94.7817
                               0               0                0               0         0.127589         86.5672        0.0237454         -134.06
                               0               0                0               0         0.023812         -134.05         0.127584         86.5153
77.205                         0               0                0               0           0.1548         93.9488         0.935863       -0.237975