! TOUCHSTONE file generated by CST MICROWAVE STUDIO
! Date and time: Sun Jun 20 22:38:19 2021
! Project name: HIPS_d_sweep.cst
! Parameters = {fmax=120; fmin=75; b=0.46; d=25.8; a=0.63; phi=0; theta=0}
! Header version: 2018
! Port assignment regex: !\s*Touchstone port\s*([0-9]+)\s*=\s*(CST MWS port|CST DS port)\s*([0-9]+|Zmin|Zmax)\s*\(\"(.*)\"\)(\s*mode\s*([0-9]+))?.*
! Touchstone port assignment:
! Touchstone port 1 = CST MWS port Zmin ("") mode 1
! Touchstone port 2 = CST MWS port Zmin ("") mode 2
! Touchstone port 3 = CST MWS port Zmax ("") mode 1
! Touchstone port 4 = CST MWS port Zmax ("") mode 2
! S-Parameters are not renormalized. Unphysical impedance of 0 will be written to the file.
# GHz S MA R 0
75                             0               0                0               0         0.212232        -5.17261         0.967091         84.5686
                               0               0                0               0         0.967176         84.5585          0.21224        -5.14783
                               0               0                0               0         0.136511        -4.88557        0.0305441        -106.405
                               0               0                0               0        0.0305012        -106.438         0.136554        -4.87868
75.045                         0               0                0               0         0.210279        -5.62087         0.968785         83.7486
                               0               0                0               0         0.968946         83.7331         0.207438        -5.97704
                               0               0                0               0         0.134394        -5.74777        0.0296707        -107.808
                               0               0                0               0        0.0295857        -107.437         0.134441        -5.75027
75.09                          0               0                0               0         0.207815        -6.24146          0.97011         82.8294
                               0               0                0               0         0.970309         82.8122         0.203451        -6.89959
                               0               0                0               0          0.13199        -6.67732        0.0287469        -109.425
                               0               0                0               0         0.028622        -108.827         0.132038        -6.68407
75.135                         0               0                0               0         0.204909         -7.0848         0.971164         81.8137
                               0               0                0               0         0.971366         81.7971         0.200164        -7.91043
                               0               0                0               0         0.129287        -7.67493        0.0277857        -111.295
                               0               0                0               0        0.0276371         -110.64         0.129335        -7.68183
75.18                          0               0                0               0         0.201634        -8.20198         0.972026         80.7045
                               0               0                0               0         0.972203         80.6898         0.197485        -9.00586
                               0               0                0               0         0.126276        -8.74063        0.0268034        -113.459
                               0               0                0               0        0.0266578        -112.907         0.126322        -8.74459
75.225                         0               0                0               0         0.197986        -9.64595          0.97276         79.5051
                               0               0                0               0         0.972894         79.4927         0.195339        -10.1832
                               0               0                0               0         0.122946        -9.87372        0.0258209        -115.961
                               0               0                0               0        0.0257101        -115.654         0.122991        -9.87265
75.27                          0               0                0               0         0.193652        -11.4701         0.973415         78.2191
                               0               0                0               0         0.973497          78.209         0.193668        -11.4408
                               0               0                0               0         0.119288        -11.0726        0.0248644        -118.849
                               0               0                0               0        0.0248197        -118.904         0.119333        -11.0654
75.315                         0               0                0               0         0.187179        -13.5993         0.974027         76.8501
                               0               0                0               0         0.974057         76.8419         0.192422        -12.7772
                               0               0                0               0         0.115295        -12.3346        0.0239661        -122.172
                               0               0                0               0        0.0240121        -122.672          0.11534        -12.3211
75.36                          0               0                0               0         0.175891        -14.0925          0.97462         75.4017
                               0               0                0               0         0.974605         75.3947         0.191563         -14.192
                               0               0                0               0          0.11096         -13.656        0.0231659        -125.981
                               0               0                0               0        0.0233129        -126.961         0.111006        -13.6368
75.405                         0               0                0               0         0.179624        -11.5733         0.975206         73.8775
                               0               0                0               0         0.975163          73.871         0.191058        -15.6848
                               0               0                0               0         0.106277        -15.0312        0.0225124        -130.334
                               0               0                0               0        0.0227476        -131.759         0.106325         -15.008
75.45                          0               0                0               0         0.187385        -14.1129          0.97579          72.281
                               0               0                0               0         0.975739         72.2742         0.190884        -17.2553
                               0               0                0               0         0.101245         -16.453        0.0220615        -135.301
                               0               0                0               0        0.0223411        -137.036         0.101295        -16.4283
75.495                         0               0                0               0         0.189725        -17.1281         0.976368         70.6155
                               0               0                0               0         0.976333         70.6077         0.191021        -18.9037
                               0               0                0               0        0.0958649        -17.9118         0.021869        -140.983
                               0               0                0               0        0.0221173        -142.738        0.0959164        -17.8886
75.54                          0               0                0               0         0.190936          -19.88          0.97693         68.8841
                               0               0                0               0         0.976939         68.8751         0.191455        -20.6296
                               0               0                0               0        0.0901397        -19.3948        0.0219681        -147.514
                               0               0                0               0        0.0220979        -148.789        0.0901912        -19.3769
75.585                         0               0                0               0         0.192158        -22.4656          0.97746           67.09
                               0               0                0               0          0.97754         67.0795         0.192177        -22.4325
                               0               0                0               0         0.084077         -20.885        0.0223319        -154.986
                               0               0                0               0        0.0223011        -155.094        0.0841261        -20.8767
75.63                          0               0                0               0         0.193657        -24.9475         0.977941         65.2359
                               0               0                0               0         0.978118         65.2241         0.193181        -24.3115
                               0               0                0               0        0.0776881        -22.3594        0.0228615        -163.274
                               0               0                0               0        0.0227409        -161.551        0.0777317        -22.3654
75.675                         0               0                0               0         0.195476        -27.3547         0.978351         63.3247
                               0               0                0               0         0.978648         63.3119         0.194463         -26.265
                               0               0                0               0        0.0709887         -23.786        0.0234573        -171.935
                               0               0                0               0        0.0234267        -168.057        0.0710231        -23.8113
75.72                          0               0                0               0         0.197602        -29.7025         0.978669         61.3591
                               0               0                0               0         0.979102         61.3458         0.196025        -28.2903
                               0               0                0               0        0.0639992        -25.1187        0.0241111          179.58
                               0               0                0               0        0.0243634        -174.527        0.0640203        -25.1685
75.765                         0               0                0               0         0.199996        -32.0008         0.978872         59.3416
                               0               0                0               0         0.979453         59.3287         0.197865        -30.3837
                               0               0                0               0        0.0567453        -26.2875        0.0248898         171.632
                               0               0                0               0        0.0255527         179.104         0.056749        -26.3672
75.81                          0               0                0               0         0.202621        -34.2581          0.97894         57.2748
                               0               0                0               0          0.97967         57.2632         0.199987        -32.5405
                               0               0                0               0         0.049259        -27.1804        0.0258583         164.332
                               0               0                0               0         0.026994         172.868        0.0492417        -27.2956
75.855                         0               0                0               0         0.205439        -36.4822         0.978856          55.161
                               0               0                0               0         0.979727         55.1518          0.20239        -34.7544
                               0               0                0               0        0.0415814        -27.6024        0.0270435          157.65
                               0               0                0               0        0.0286855         166.771        0.0415402        -27.7588
75.9                           0               0                0               0         0.208414        -38.6808         0.978604          53.003
                               0               0                0               0         0.979598         52.9971          0.20507        -37.0184
                               0               0                0               0        0.0337695        -27.1784        0.0284413         151.509
                               0               0                0               0        0.0306235         160.784        0.0337024        -27.3822
75.945                         0               0                0               0         0.211517        -40.8611         0.978177         50.8033
                               0               0                0               0         0.979262         50.8015          0.20802         -39.324
                               0               0                0               0        0.0259159        -25.0843         0.030032         145.827
                               0               0                0               0        0.0327991         154.849         0.025822          -25.34
75.99                          0               0                0               0         0.214719        -43.0303          0.97757         48.5646
                               0               0                0               0         0.978704         48.5674         0.211225        -41.6628
                               0               0                0               0        0.0182217        -19.1381        0.0317905         140.525
                               0               0                0               0        0.0351873         148.877        0.0181005        -19.4344
76.035                         0               0                0               0         0.217995        -45.1949         0.976786         46.2899
                               0               0                0               0         0.977916         46.2972         0.214663         -44.026
                               0               0                0               0        0.0113475        -2.10089        0.0336911         135.534
                               0               0                0               0        0.0377225         142.755        0.0112019        -2.28594
76.08                          0               0                0               0         0.221323         -47.361         0.975834         43.9827
                               0               0                0               0         0.976901         43.9936         0.218303        -46.4055
                               0               0                0               0       0.00817555         43.6857        0.0357096         130.794
                               0               0                0               0        0.0402529         136.386       0.00806671         44.2888
76.125                         0               0                0               0         0.224681         -49.534         0.974729         41.6466
                               0               0                0               0         0.975669         41.6594         0.222105        -48.7941
                               0               0                0               0        0.0122069         85.3521        0.0378231         126.253
                               0               0                0               0         0.042499         129.796        0.0121963         85.9048
76.17                          0               0                0               0         0.228049        -51.7188         0.973491          39.286
                               0               0                0               0         0.974243         39.2978         0.226022        -51.1866
                               0               0                0               0        0.0193859         100.036          0.04001         121.868
                               0               0                0               0        0.0441325         123.317        0.0194051         100.295
76.215                         0               0                0               0         0.231406        -53.9195         0.972142         36.9058
                               0               0                0               0         0.972657         36.9127         0.230001        -53.5793
                               0               0                0               0        0.0273068         105.174        0.0422494           117.6
                               0               0                0               0        0.0450957         117.568        0.0273199         105.287
76.26                          0               0                0               0         0.234731        -56.1396         0.970705         34.5116
                               0               0                0               0         0.970951         34.5087         0.233987        -55.9703
                               0               0                0               0        0.0354254         106.878        0.0445206         113.421
                               0               0                0               0        0.0458124         112.953        0.0354135         106.915
76.305                         0               0                0               0         0.238005        -58.3819         0.969198         32.1097
                               0               0                0               0         0.969171         32.0916         0.237922        -58.3597
                               0               0                0               0        0.0435694         107.038         0.046803         109.306
                               0               0                0               0        0.0468108         109.249        0.0435199         107.033
76.35                          0               0                0               0         0.241205        -60.6486         0.967631         29.7069
                               0               0                0               0         0.967362         29.6683         0.241753        -60.7485
                               0               0                0               0        0.0516587         106.384        0.0490754         105.236
                               0               0                0               0        0.0482919         105.918        0.0515624         106.359
76.395                         0               0                0               0         0.244312        -62.9411         0.966002         27.3103
                               0               0                0               0         0.965556         27.2467         0.245429        -63.1388
                               0               0                0               0        0.0596442         105.255        0.0513165         101.197
                               0               0                0               0        0.0501728         102.571        0.0594956         105.224
76.44                          0               0                0               0         0.247303        -65.2601         0.964295         24.9271
                               0               0                0               0         0.963767          24.836         0.248906        -65.5328
                               0               0                0               0        0.0674904         103.827        0.0535047         97.1795
                               0               0                0               0        0.0522908          99.053        0.0672875           103.8
76.485                         0               0                0               0         0.250156        -67.6057          0.96248         22.5642
                               0               0                0               0         0.961982         22.4455         0.252146        -67.9329
                               0               0                0               0        0.0751689         102.201        0.0556183         93.1769
                               0               0                0               0        0.0545043         95.3425        0.0749131         102.185
76.53                          0               0                0               0         0.252849        -69.9771         0.960511         20.2278
                               0               0                0               0         0.960156         20.0842         0.255119        -70.3407
                               0               0                0               0        0.0826552         100.439        0.0576363         89.1868
                               0               0                0               0        0.0567105         91.4701        0.0823514         100.438
76.575                         0               0                0               0         0.255362        -72.3731         0.958333         17.9228
                               0               0                0               0         0.958216         17.7599         0.257801        -72.7571
                               0               0                0               0        0.0899274         98.5814        0.0595386         85.2094
                               0               0                0               0        0.0588374         87.4778        0.0895841          98.599
76.62                          0               0                0               0         0.257674        -74.7917         0.955889         15.6533
                               0               0                0               0         0.956068         15.4784         0.260177        -75.1826
                               0               0                0               0        0.0969659         96.6555        0.0613068         81.2473
                               0               0                0               0        0.0608342         83.4061         0.096594         96.6925
76.665                         0               0                0               0         0.259766        -77.2302         0.953122         13.4215
                               0               0                0               0         0.953612          13.243         0.262236        -77.6162
                               0               0                0               0         0.103752         94.6813        0.0629246         77.3051
                               0               0                0               0        0.0626644         79.2906         0.103365          94.737
76.71                          0               0                0               0         0.261622        -79.6853         0.949983         11.2287
                               0               0                0               0         0.950758         11.0547         0.263974        -80.0566
                               0               0                0               0          0.11027         92.6734        0.0643785         73.3888
                               0               0                0               0        0.0643023         75.1617         0.109882         92.7457
76.755                         0               0                0               0         0.263226        -82.1535         0.946438         9.07505
                               0               0                0               0         0.947437         8.91228          0.26539        -82.5015
                               0               0                0               0         0.116504         90.6434        0.0656582         69.5055
                               0               0                0               0        0.0657312         71.0456         0.116128         90.7288
76.8                           0               0                0               0         0.264568        -84.6305         0.942468         6.95967
                               0               0                0               0         0.943608         6.81324         0.266491        -84.9482
                               0               0                0               0         0.122439         88.6008         0.066757         65.6629
                               0               0                0               0        0.0669422         66.9643         0.122089         88.6949
76.845                         0               0                0               0         0.265639        -87.1117          0.93807         4.88129
                               0               0                0               0         0.939263         4.75426         0.267284        -87.3934
                               0               0                0               0         0.128064         86.5537        0.0676718         61.8687
                               0               0                0               0        0.0679331         62.9368          0.12775         86.6514
76.89                          0               0                0               0         0.266435        -89.5925         0.933256         2.83828
                               0               0                0               0          0.93442          2.7319         0.267781        -89.8336
                               0               0                0               0         0.133368         84.5091        0.0684029         58.1303
                               0               0                0               0        0.0687073         58.9784         0.133098         84.6049
76.935                         0               0                0               0         0.266956         -92.068         0.928053        0.828942
                               0               0                0               0         0.929119        0.742948         0.267997        -92.2653
                               0               0                0               0         0.138342         82.4735        0.0689541         54.4547
                               0               0                0               0        0.0692734         55.1015         0.138121         82.5622
76.98                          0               0                0               0         0.267206        -94.5331         0.922497         -1.1484
                               0               0                0               0         0.923415        -1.21531         0.267949        -94.6848
                               0               0                0               0         0.142981         80.4529         0.069332         50.8478
                               0               0                0               0        0.0696436         51.3155         0.142808         80.5298
77.025                         0               0                0               0         0.267191        -96.9831         0.916633        -3.09525
                               0               0                0               0         0.917372        -3.14505         0.267656        -97.0886
                               0               0                0               0         0.147282          78.453        0.0695457         47.3147
                               0               0                0               0        0.0698326         47.6274         0.147153         78.5141
77.07                          0               0                0               0         0.266923        -99.4133          0.91051        -5.01298
                               0               0                0               0         0.911057        -5.04794         0.267137        -99.4733
                               0               0                0               0         0.151244          76.479         0.069606         43.8593
                               0               0                0               0        0.0698571         44.0413         0.151151         76.5215
77.115                         0               0                0               0         0.266417        -101.819         0.904179        -6.90273
                               0               0                0               0         0.904536        -6.92522         0.266414        -101.836
                               0               0                0               0         0.154871         74.5359        0.0695252         40.4843
                               0               0                0               0        0.0697344         40.5594         0.154804         74.5584
77.16                          0               0                0               0         0.265691        -104.197         0.897693        -8.76554
                               0               0                0               0         0.897872        -8.77779         0.265507        -104.174
                               0               0                0               0         0.158168         72.6283        0.0693162         37.1913
                               0               0                0               0         0.069482          37.182         0.158115         72.6307
77.205                         0               0                0               0         0.264764        -106.544         0.891101        -10.6023