! TOUCHSTONE file generated by CST MICROWAVE STUDIO
! Date and time: Sun Jun 20 22:37:54 2021
! Project name: HIPS_d_sweep.cst
! Parameters = {fmax=120; fmin=75; b=0.46; d=23.5; a=0.63; phi=0; theta=0}
! Header version: 2018
! Port assignment regex: !\s*Touchstone port\s*([0-9]+)\s*=\s*(CST MWS port|CST DS port)\s*([0-9]+|Zmin|Zmax)\s*\(\"(.*)\"\)(\s*mode\s*([0-9]+))?.*
! Touchstone port assignment:
! Touchstone port 1 = CST MWS port Zmin ("") mode 1
! Touchstone port 2 = CST MWS port Zmin ("") mode 2
! Touchstone port 3 = CST MWS port Zmax ("") mode 1
! Touchstone port 4 = CST MWS port Zmax ("") mode 2
! S-Parameters are not renormalized. Unphysical impedance of 0 will be written to the file.
# GHz S MA R 0
75                             0               0                0               0        0.0613163        -111.617         0.978573        -15.8284
                               0               0                0               0         0.978507        -15.8382        0.0612008        -111.524
                               0               0                0               0         0.194712         73.5681        0.0332284         52.6774
                               0               0                0               0        0.0332592         52.6491         0.194717         73.5816
75.045                         0               0                0               0        0.0572014        -112.773         0.978636        -16.5873
                               0               0                0               0          0.97857         -16.597        0.0570747        -112.655
                               0               0                0               0         0.195721         72.8534        0.0326301         52.9379
                               0               0                0               0        0.0326596         52.9157         0.195727         72.8668
75.09                          0               0                0               0        0.0535205        -114.008          0.97863        -17.4255
                               0               0                0               0         0.978567        -17.4352        0.0533947         -113.89
                               0               0                0               0         0.196873         72.0589        0.0321481         53.0717
                               0               0                0               0        0.0321785         53.0479         0.196879         72.0721
75.135                         0               0                0               0        0.0502623        -115.331         0.978561        -18.3412
                               0               0                0               0         0.978503        -18.3509        0.0501426        -115.226
                               0               0                0               0         0.198156          71.183        0.0317809          53.067
                               0               0                0               0        0.0318128         53.0378         0.198163         71.1963
75.18                          0               0                0               0        0.0474163        -116.747         0.978433        -19.3329
                               0               0                0               0         0.978381        -19.3425        0.0473031        -116.656
                               0               0                0               0         0.199556         70.2258        0.0315244         52.9128
                               0               0                0               0        0.0315578         52.8776         0.199564         70.2391
75.225                         0               0                0               0        0.0449724        -118.254         0.978251        -20.3989
                               0               0                0               0         0.978205        -20.4084        0.0448635        -118.173
                               0               0                0               0         0.201058         69.1879         0.031373         52.5994
                               0               0                0               0        0.0314072         52.5594         0.201067         69.2012
75.27                          0               0                0               0        0.0429204        -119.844         0.978019        -21.5376
                               0               0                0               0         0.977979         -21.547        0.0428122        -119.765
                               0               0                0               0         0.202645         68.0708        0.0313194         52.1191
                               0               0                0               0        0.0313538         52.0765         0.202655          68.084
75.315                         0               0                0               0        0.0412494        -121.504         0.977742        -22.7472
                               0               0                0               0         0.977709        -22.7566        0.0411384        -121.419
                               0               0                0               0           0.2043         66.8767        0.0313553         51.4668
                               0               0                0               0        0.0313894         51.4239         0.204311         66.8898
75.36                          0               0                0               0        0.0399477        -123.216         0.977427        -24.0261
                               0               0                0               0         0.977401        -24.0355        0.0398311        -123.119
                               0               0                0               0         0.206004          65.608        0.0314712         50.6398
                               0               0                0               0        0.0315048         50.5983         0.206016          65.621
75.405                         0               0                0               0        0.0390022         -124.96         0.977081        -25.3723
                               0               0                0               0         0.977063        -25.3816        0.0388791        -124.847
                               0               0                0               0         0.207737         64.2677        0.0316574         49.6382
                               0               0                0               0        0.0316903         49.5987          0.20775         64.2805
75.45                          0               0                0               0        0.0383991        -126.715          0.97671        -26.7836
                               0               0                0               0         0.976702        -26.7929        0.0382701        -126.587
                               0               0                0               0          0.20948         62.8588        0.0319038         48.4644
                               0               0                0               0         0.031936         48.4261         0.209494         62.8715
75.495                         0               0                0               0         0.038123        -128.461         0.976325        -28.2578
                               0               0                0               0         0.976327         -28.267        0.0379907        -128.324
                               0               0                0               0         0.211211         61.3845        0.0322001         47.1229
                               0               0                0               0        0.0322314          47.084         0.211227         61.3971
75.54                          0               0                0               0         0.038158        -130.185         0.975931        -29.7923
                               0               0                0               0         0.975947        -29.8014        0.0380263        -130.047
                               0               0                0               0         0.212911         59.8478        0.0325364         45.6197
                               0               0                0               0        0.0325664         45.5775         0.212928         59.8604
75.585                         0               0                0               0        0.0384873        -131.876         0.975538        -31.3842
                               0               0                0               0          0.97557        -31.3932        0.0383606        -131.747
                               0               0                0               0         0.214557         58.2521        0.0329027          43.962
                               0               0                0               0        0.0329307         43.9132         0.214576         58.2647
75.63                          0               0                0               0        0.0390934        -133.531         0.975153        -33.0307
                               0               0                0               0         0.975202        -33.0394        0.0389762        -133.422
                               0               0                0               0         0.216127         56.6004        0.0332894         42.1577
                               0               0                0               0        0.0333144         42.0991         0.216148          56.613
75.675                         0               0                0               0        0.0399586        -135.154         0.974781        -34.7283
                               0               0                0               0          0.97485        -34.7367        0.0398545        -135.072
                               0               0                0               0         0.217599          54.896        0.0336871          40.215
                               0               0                0               0        0.0337078          40.144         0.217622         54.9087
75.72                          0               0                0               0        0.0410645         -136.75         0.974428        -36.4736
                               0               0                0               0         0.974519        -36.4816        0.0409756        -136.701
                               0               0                0               0         0.218951          53.142        0.0340869         38.1422
                               0               0                0               0        0.0341018         38.0568         0.218976         53.1549
75.765                         0               0                0               0        0.0423924         -138.33         0.974096        -38.2629
                               0               0                0               0         0.974211        -38.2706        0.0423191        -138.314
                               0               0                0               0         0.220159         51.3418          0.03448         35.9471
                               0               0                0               0        0.0344876         35.8469         0.220186         51.3547
75.81                          0               0                0               0        0.0439232        -139.905         0.973788        -40.0926
                               0               0                0               0         0.973927        -40.0999        0.0438643        -139.919
                               0               0                0               0         0.221203         49.4986         0.034858         33.6376
                               0               0                0               0         0.034857         33.5235         0.221232         49.5117
75.855                         0               0                0               0        0.0456378        -141.485         0.973504        -41.9588
                               0               0                0               0         0.973668        -41.9657        0.0455902        -141.521
                               0               0                0               0          0.22206         47.6159        0.0352127         31.2209
                               0               0                0               0         0.035202         31.0953         0.222092         47.6291
75.9                           0               0                0               0        0.0475165        -143.079         0.973242        -43.8578
                               0               0                0               0         0.973431        -43.8643        0.0474767        -143.126
                               0               0                0               0         0.222711         45.6973        0.0355361         28.7038
                               0               0                0               0        0.0355154         28.5708         0.222746         45.7107
75.945                         0               0                0               0        0.0495405        -144.692         0.973002        -45.7857
                               0               0                0               0         0.973215         -45.792        0.0495042        -144.739
                               0               0                0               0         0.223138         43.7466        0.0358205          26.093
                               0               0                0               0        0.0357904         25.9578         0.223176         43.7603
75.99                          0               0                0               0        0.0516914        -146.329         0.972782        -47.7391
                               0               0                0               0         0.973019        -47.7452         0.051655        -146.362
                               0               0                0               0         0.223325         41.7677        0.0360584         23.3948
                               0               0                0               0        0.0360204         23.2636         0.223365         41.7816
76.035                         0               0                0               0         0.053952        -147.989         0.972583        -49.7146
                               0               0                0               0         0.972841        -49.7207         0.053913        -147.998
                               0               0                0               0         0.223259         39.7646        0.0362428         20.6156
                               0               0                0               0        0.0361995         20.4949         0.223302         39.7787
76.08                          0               0                0               0        0.0563072        -149.669         0.972408         -51.709
                               0               0                0               0         0.972685        -51.7152        0.0562645        -149.648
                               0               0                0               0         0.222931         37.7413        0.0363669         17.7621
                               0               0                0               0        0.0363221         17.6581         0.222976         37.7557
76.125                         0               0                0               0        0.0587441        -151.363         0.972261        -53.7196
                               0               0                0               0         0.972556         -53.726        0.0586981        -151.309
                               0               0                0               0         0.222334         35.7018        0.0364248         14.8413
                               0               0                0               0        0.0363831         14.7593         0.222382         35.7165
76.17                          0               0                0               0        0.0612529        -153.065         0.972155        -55.7439
                               0               0                0               0         0.972463        -55.7505        0.0612053        -152.981
                               0               0                0               0         0.221466         33.6499        0.0364114         11.8611
                               0               0                0               0        0.0363779         11.8042         0.221517         33.6648
76.215                         0               0                0               0        0.0638262        -154.765         0.972106        -57.7798
                               0               0                0               0         0.972424        -57.7864          0.06378        -154.661
                               0               0                0               0         0.220331          31.589         0.036323         8.83007
                               0               0                0               0        0.0363027         8.79891         0.220386         31.6041
76.26                          0               0                0               0         0.066459        -156.454         0.972137        -59.8252
                               0               0                0               0          0.97246        -59.8317        0.0664181        -156.345
                               0               0                0               0         0.218933         29.5222        0.0361577         5.75772
                               0               0                0               0        0.0361543         5.74956         0.218992         29.5373
76.305                         0               0                0               0         0.069147        -158.123         0.972277        -61.8786
                               0               0                0               0           0.9726        -61.8843        0.0691166        -158.027
                               0               0                0               0         0.217282         27.4518        0.0359155         2.65419
                               0               0                0               0        0.0359307         2.66279         0.217346         27.4668
76.35                          0               0                0               0        0.0718848        -159.765         0.972558        -63.9378
                               0               0                0               0         0.972876        -63.9422        0.0718718        -159.703
                               0               0                0               0         0.215388         25.3798        0.0355992       -0.470519
                               0               0                0               0        0.0356314       -0.454208         0.215457         25.3943
76.395                         0               0                0               0        0.0746629        -161.377         0.973014        -66.0005
                               0               0                0               0          0.97332        -66.0028        0.0746769        -161.366
                               0               0                0               0          0.21326         23.3076        0.0352141        -3.60797
                               0               0                0               0        0.0352577        -3.59388         0.213334         23.3213
76.44                          0               0                0               0        0.0774652        -162.959         0.973664        -68.0635
                               0               0                0               0          0.97395        -68.0629        0.0775184        -163.011
                               0               0                0               0         0.210904         21.2365        0.0347674        -6.75331
                               0               0                0               0        0.0348133        -6.74892         0.210985         21.2491
76.485                         0               0                0               0        0.0802672        -164.521         0.974504        -70.1224
                               0               0                0               0         0.974763        -70.1183         0.080373        -164.636
                               0               0                0               0         0.208322         19.1684        0.0342666        -9.90758
                               0               0                0               0        0.0343043        -9.91401         0.208409         19.1796
76.53                          0               0                0               0        0.0830367        -166.081         0.975484         -72.172
                               0               0                0               0          0.97571        -72.1642        0.0832057        -166.246
                               0               0                0               0         0.205507         17.1063        0.0337162        -13.0791
                               0               0                0               0        0.0337392        -13.0889         0.205598         17.1163
76.575                         0               0                0               0        0.0857386        -167.665         0.976495        -74.2068
                               0               0                0               0          0.97669        -74.1957        0.0859722        -167.858
                               0               0                0               0         0.202443         15.0551        0.0331144        -16.2818
                               0               0                0               0        0.0331256        -16.2832         0.202539         15.0641
76.62                          0               0                0               0        0.0883411        -169.307         0.977363        -76.2224
                               0               0                0               0         0.977537        -76.2086        0.0886275          -169.5
                               0               0                0               0         0.199109         13.0219        0.0324499        -19.5301
                               0               0                0               0        0.0324648        -19.5184         0.199208         13.0308
76.665                         0               0                0               0        0.0908221        -171.041         0.977874        -78.2167
                               0               0                0               0         0.978045        -78.2013        0.0911376        -171.209
                               0               0                0               0         0.195481         11.0163        0.0317035        -22.8309
                               0               0                0               0        0.0317436        -22.8225         0.195581         11.0258
76.71                          0               0                0               0        0.0931722        -172.894         0.977812        -80.1904
                               0               0                0               0         0.978001        -80.1745        0.0934888        -173.022
                               0               0                0               0         0.191538         9.04934        0.0308519        -26.1771
                               0               0                0               0        0.0309311        -26.2085         0.191638         9.06034
76.755                         0               0                0               0         0.095392        -174.883         0.977004        -82.1463
                               0               0                0               0         0.977229        -82.1305        0.0956874        -174.966
                               0               0                0               0         0.187269          7.1328        0.0298753        -29.5482
                               0               0                0               0        0.0299899        -29.6513         0.187369         7.14603
76.8                           0               0                0               0        0.0974868        -177.012         0.975355        -84.0874
                               0               0                0               0         0.975622         -84.072        0.0977506        -177.054
                               0               0                0               0         0.182681         5.27818        0.0287627        -32.9154
                               0               0                0               0        0.0288955        -33.0905          0.18278         5.29397
76.845                         0               0                0               0        0.0994611        -179.273         0.972846        -86.0154
                               0               0                0               0          0.97315        -86.0006        0.0996948        -179.281
                               0               0                0               0         0.177797         3.49581        0.0275148        -36.2501
                               0               0                0               0         0.027647        -36.4606         0.177895         3.51407
76.89                          0               0                0               0         0.101316         178.352         0.969528        -87.9302
                               0               0                0               0         0.969854        -87.9159         0.101528         178.367
                               0               0                0               0         0.172654         1.79433        0.0261423        -39.5296
                               0               0                0               0        0.0262617        -39.7215         0.172753         1.81462
76.935                         0               0                0               0         0.103047         175.882         0.965495        -89.8299
                               0               0                0               0         0.965824        -89.8158         0.103249         175.912
                               0               0                0               0         0.167301        0.180583        0.0246633        -42.7383
                               0               0                0               0        0.0247647        -42.8637         0.167401        0.202238
76.98                          0               0                0               0         0.104649          173.34         0.960865        -91.7116
                               0               0                0               0         0.961177        -91.6974         0.104849         173.377
                               0               0                0               0         0.161791        -1.34035        0.0230997        -45.8672
                               0               0                0               0        0.0231825        -45.8976         0.161892        -1.31809
77.025                         0               0                0               0         0.106115         170.748         0.955763        -93.5722
                               0               0                0               0         0.956044        -93.5576         0.106317         170.788
                               0               0                0               0         0.156175        -2.76489        0.0214744        -48.9108
                               0               0                0               0        0.0215406        -48.8401         0.156277        -2.74274
77.07                          0               0                0               0         0.107441         168.125         0.950308        -95.4092
                               0               0                0               0         0.950549        -95.3938         0.107646         168.164
                               0               0                0               0         0.150502        -4.09063         0.019809        -51.8654
                               0               0                0               0        0.0198622        -51.7041         0.150605        -4.06922
77.115                         0               0                0               0         0.108625         165.488         0.944612        -97.2208
                               0               0                0               0          0.94481        -97.2044         0.108828         165.526
                               0               0                0               0         0.144811        -5.31601        0.0181231        -54.7274
                               0               0                0               0        0.0181673        -54.4955         0.144916        -5.29583
77.16                          0               0                0               0         0.109668         162.853         0.938769        -99.0059
                               0               0                0               0         0.938925        -98.9885         0.109865         162.889
                               0               0                0               0         0.139139        -6.43997        0.0164328        -57.4923
                               0               0                0               0        0.0164719        -57.2128         0.139244        -6.42138
77.205                         0               0                0               0         0.110572         160.231          0.93286        -100.764