! TOUCHSTONE file generated by CST MICROWAVE STUDIO
! Date and time: Sun Jun 20 22:37:00 2021
! Project name: HIPS_d_sweep.cst
! Parameters = {fmax=120; fmin=75; b=0.46; d=17.8; a=0.63; phi=0; theta=0}
! Header version: 2018
! Port assignment regex: !\s*Touchstone port\s*([0-9]+)\s*=\s*(CST MWS port|CST DS port)\s*([0-9]+|Zmin|Zmax)\s*\(\"(.*)\"\)(\s*mode\s*([0-9]+))?.*
! Touchstone port assignment:
! Touchstone port 1 = CST MWS port Zmin ("") mode 1
! Touchstone port 2 = CST MWS port Zmin ("") mode 2
! Touchstone port 3 = CST MWS port Zmax ("") mode 1
! Touchstone port 4 = CST MWS port Zmax ("") mode 2
! S-Parameters are not renormalized. Unphysical impedance of 0 will be written to the file.
# GHz S MA R 0
75                             0               0                0               0         0.328763         4.29808         0.926575        -88.2221
                               0               0                0               0         0.926736        -88.2085         0.328602         4.28142
                               0               0                0               0          0.15607         12.1066        0.0942484         37.3411
                               0               0                0               0        0.0941832         37.4234         0.156118         12.1089
75.045                         0               0                0               0         0.331813         3.59813         0.926278        -88.8423
                               0               0                0               0         0.926466        -88.8278         0.331655         3.57815
                               0               0                0               0         0.154621          11.769        0.0948126         36.4829
                               0               0                0               0        0.0947709         36.5616         0.154653         11.7699
75.09                          0               0                0               0         0.334631         2.86546         0.925886        -89.5151
                               0               0                0               0         0.926083        -89.4997         0.334478         2.84245
                               0               0                0               0          0.15306         11.3829        0.0952962         35.5405
                               0               0                0               0        0.0952709         35.6172         0.153082         11.3828
75.135                         0               0                0               0         0.337204         2.09641         0.925427        -90.2417
                               0               0                0               0         0.925618        -90.2253          0.33706         2.07079
                               0               0                0               0         0.151387         10.9489        0.0957036         34.5092
                               0               0                0               0        0.0956884          34.585         0.151403         10.9484
75.18                          0               0                0               0          0.33952         1.28741         0.924929        -91.0226
                               0               0                0               0         0.925101        -91.0054         0.339387         1.25967
                               0               0                0               0         0.149604         10.4678        0.0960401         33.3853
                               0               0                0               0        0.0960293         33.4604         0.149617         10.4674
75.225                         0               0                0               0         0.341572        0.435042          0.92442        -91.8581
                               0               0                0               0         0.924565        -91.8404         0.341454        0.405758
                               0               0                0               0         0.147712          9.9407        0.0963115          32.166
                               0               0                0               0        0.0963002         32.2404         0.147724         9.94079
75.27                          0               0                0               0         0.343358       -0.463834         0.923928        -92.7483
                               0               0                0               0          0.92404        -92.7302         0.343255        -0.49404
                               0               0                0               0         0.145709          9.3687        0.0965235         30.8494
                               0               0                0               0        0.0965078         30.9226         0.145723         9.36969
75.315                         0               0                0               0         0.344875        -1.41199         0.923479        -93.6928
                               0               0                0               0         0.923554        -93.6746          0.34479        -1.44246
                               0               0                0               0         0.143596         8.75323        0.0966815         29.4348
                               0               0                0               0        0.0966585         29.5061         0.143611         8.75544
75.36                          0               0                0               0         0.346128        -2.41175         0.923097        -94.6909
                               0               0                0               0         0.923135         -94.673         0.346062        -2.44178
                               0               0                0               0          0.14137         8.09588        0.0967904         27.9221
                               0               0                0               0        0.0967583         27.9907         0.141388         8.09959
75.405                         0               0                0               0         0.347122        -3.46486         0.922804        -95.7416
                               0               0                0               0         0.922806        -95.7243         0.347074         -3.4938
                               0               0                0               0         0.139029         7.39849        0.0968544         26.3122
                               0               0                0               0        0.0968123         26.3774         0.139051         7.40389
75.45                          0               0                0               0         0.347866        -4.57251         0.922619        -96.8437
                               0               0                0               0         0.922588        -96.8271         0.347836         -4.5997
                               0               0                0               0         0.136572         6.66311        0.0968767         24.6068
                               0               0                0               0        0.0968247         24.6678         0.136597         6.67035
75.495                         0               0                0               0         0.348369        -5.73521         0.922557        -97.9956
                               0               0                0               0         0.922497        -97.9799         0.348356        -5.76005
                               0               0                0               0         0.133995         5.89209        0.0968597         22.8082
                               0               0                0               0        0.0967984         22.8643         0.134024         5.90127
75.54                          0               0                0               0         0.348643        -6.95282         0.922631        -99.1954
                               0               0                0               0         0.922547        -99.1808         0.348647        -6.97476
                               0               0                0               0         0.131296         5.08811        0.0968047         20.9191
                               0               0                0               0        0.0967352           20.97         0.131328         5.09927
75.585                         0               0                0               0         0.348702        -8.22452         0.922849        -100.441
                               0               0                0               0         0.922745        -100.428          0.34872        -8.24312
                               0               0                0               0         0.128472         4.25418        0.0967119          18.943
                               0               0                0               0         0.096636         18.9883         0.128507         4.26735
75.63                          0               0                0               0         0.348557        -9.54887         0.923213         -101.73
                               0               0                0               0         0.923096        -101.718         0.348588        -9.56375
                               0               0                0               0         0.125521          3.3938        0.0965806         16.8835
                               0               0                0               0        0.0965003         16.9233         0.125558         3.40895
75.675                         0               0                0               0         0.348223        -10.9238         0.923725         -103.06
                               0               0                0               0         0.923599         -103.05         0.348263        -10.9347
                               0               0                0               0         0.122439         2.51093        0.0964093         14.7448
                               0               0                0               0        0.0963267         14.7791         0.122478         2.52802
75.72                          0               0                0               0          0.34771        -12.3468          0.92438        -104.428
                               0               0                0               0          0.92425         -104.42         0.347759        -12.3534
                               0               0                0               0         0.119226         1.61015        0.0961957         12.5313
                               0               0                0               0        0.0961132         12.5602         0.119266         1.62912
75.765                         0               0                0               0         0.347032        -13.8146         0.925169        -105.833
                               0               0                0               0         0.925039        -105.825         0.347087         -13.817
                               0               0                0               0         0.115878        0.696745         0.095937         10.2475
                               0               0                0               0        0.0958567         10.2713         0.115919        0.717527
75.81                          0               0                0               0         0.346199        -15.3239         0.926081         -107.27
                               0               0                0               0         0.925955        -107.264         0.346258        -15.3219
                               0               0                0               0         0.112396       -0.223178        0.0956299         7.89821
                               0               0                0               0         0.095554         7.91742         0.112438       -0.200652
75.855                         0               0                0               0          0.34522        -16.8707           0.9271        -108.737
                               0               0                0               0         0.926981        -108.733         0.345281        -16.8646
                               0               0                0               0         0.108779        -1.14251        0.0952708         5.48842
                               0               0                0               0        0.0952013         5.50343         0.108821         -1.1183
75.9                           0               0                0               0         0.344105        -18.4511          0.92821        -110.232
                               0               0                0               0         0.928099        -110.229         0.344167        -18.4408
                               0               0                0               0         0.105028        -2.05293        0.0948562         3.02317
                               0               0                0               0        0.0947948         3.03444          0.10507        -2.02711
75.945                         0               0                0               0         0.342861        -20.0608         0.929388         -111.75
                               0               0                0               0         0.929288         -111.75         0.342923        -20.0466
                               0               0                0               0         0.101145        -2.94472        0.0943825        0.507637
                               0               0                0               0        0.0943307        0.515627         0.101187        -2.91732
75.99                          0               0                0               0         0.341496        -21.6954         0.930614        -113.291
                               0               0                0               0         0.930523        -113.292         0.341557        -21.6774
                               0               0                0               0         0.097135        -3.80639        0.0938465        -2.05297
                               0               0                0               0        0.0938055        -2.04782        0.0971758        -3.77743
76.035                         0               0                0               0         0.340016        -23.3505         0.931861         -114.85
                               0               0                0               0         0.931781        -114.853         0.340074        -23.3291
                               0               0                0               0        0.0930016        -4.62433        0.0932454         -4.6534
                               0               0                0               0         0.093216        -4.65067        0.0930416         -4.5938
76.08                          0               0                0               0         0.338427        -25.0217         0.933107        -116.426
                               0               0                0               0         0.933037         -116.43         0.338482        -24.9972
                               0               0                0               0        0.0887524        -5.38228        0.0925768        -7.28841
                               0               0                0               0        0.0925595        -7.28773        0.0887915        -5.35017
76.125                         0               0                0               0         0.336734        -26.7048         0.934325        -118.015
                               0               0                0               0         0.934263        -118.021         0.336786        -26.6774
                               0               0                0               0        0.0843964        -6.06072        0.0918392        -9.95279
                               0               0                0               0        0.0918342        -9.95384        0.0844346        -6.02696
76.17                          0               0                0               0         0.334943        -28.3955          0.93549        -119.615
                               0               0                0               0         0.935435        -119.623         0.334992        -28.3657
                               0               0                0               0         0.079945        -6.63596        0.0910315        -12.6414
                               0               0                0               0        0.0910388        -12.6439        0.0799824        -6.60045
76.215                         0               0                0               0         0.333058        -30.0898         0.936577        -121.224
                               0               0                0               0         0.936526        -121.233         0.333105        -30.0579
                               0               0                0               0        0.0754123        -7.07902        0.0901538        -15.3492
                               0               0                0               0        0.0901729        -15.3529         0.075449        -7.04165
76.26                          0               0                0               0         0.331086        -31.7839         0.937561        -122.838
                               0               0                0               0         0.937515        -122.849          0.33113        -31.7502
                               0               0                0               0        0.0708154        -7.35412        0.0892066        -18.0715
                               0               0                0               0        0.0892368        -18.0762        0.0708517        -7.31472
76.305                         0               0                0               0         0.329032        -33.4742         0.938422        -124.457
                               0               0                0               0         0.938376         -124.47         0.329073         -33.439
                               0               0                0               0        0.0661754        -7.41656        0.0881916        -20.8034
                               0               0                0               0        0.0882318        -20.8089        0.0662114        -7.37497
76.35                          0               0                0               0         0.326901        -35.1573         0.939137        -126.078
                               0               0                0               0         0.939091        -126.092          0.32694         -35.121
                               0               0                0               0        0.0615174        -7.21001        0.0871111        -23.5407
                               0               0                0               0        0.0871602        -23.5468        0.0615537        -7.16605
76.395                         0               0                0               0           0.3247        -36.8301         0.939689        -127.698
                               0               0                0               0          0.93964        -127.714         0.324738        -36.7929
                               0               0                0               0        0.0568726        -6.66283        0.0859681        -26.2792
                               0               0                0               0        0.0860246        -26.2857        0.0569095        -6.61634
76.44                          0               0                0               0         0.322435        -38.4896         0.940059        -129.316
                               0               0                0               0         0.940008        -129.333         0.322472        -38.4519
                               0               0                0               0        0.0522793        -5.68328        0.0847664         -29.015
                               0               0                0               0        0.0848288        -29.0217        0.0523174         -5.6342
76.485                         0               0                0               0         0.320113        -40.1332         0.940236         -130.93
                               0               0                0               0          0.94018        -130.948          0.32015        -40.0954
                               0               0                0               0        0.0477859        -4.15377        0.0835102        -31.7448
                               0               0                0               0        0.0835769        -31.7514        0.0478258        -4.10227
76.53                          0               0                0               0          0.31774        -41.7587         0.940206        -132.538
                               0               0                0               0         0.940145        -132.558         0.317777        -41.7209
                               0               0                0               0        0.0434541        -1.92498        0.0822045        -34.4654
                               0               0                0               0        0.0822736        -34.4717        0.0434965        -1.87161
76.575                         0               0                0               0         0.315325        -43.3639         0.939962        -134.139
                               0               0                0               0         0.939896         -134.16         0.315362        -43.3264
                               0               0                0               0        0.0393639         1.18754        0.0808542        -37.1741
                               0               0                0               0        0.0809241        -37.1797        0.0394095         1.24151
76.62                          0               0                0               0         0.312874         -44.947         0.939496        -135.731
                               0               0                0               0         0.939426        -135.753         0.312912        -44.9101
                               0               0                0               0        0.0356196          5.3969         0.079465        -39.8686
                               0               0                0               0        0.0795338        -39.8731         0.035669         5.44897
76.665                         0               0                0               0         0.310395        -46.5064         0.938807        -137.314
                               0               0                0               0         0.938733        -137.335         0.310434        -46.4704
                               0               0                0               0        0.0323552         10.9136        0.0780422         -42.547
                               0               0                0               0        0.0781084          -42.55        0.0324087         10.9596
76.71                          0               0                0               0         0.307896        -48.0409         0.937892        -138.885
                               0               0                0               0         0.937816        -138.907         0.307935        -48.0059
                               0               0                0               0        0.0297332         17.8676        0.0765917        -45.2078
                               0               0                0               0        0.0766535        -45.2088        0.0297906         17.9011
76.755                         0               0                0               0         0.305384        -49.5492         0.936754        -140.443
                               0               0                0               0         0.936679        -140.465         0.305424        -49.5156
                               0               0                0               0        0.0279289         26.1734        0.0751189        -47.8499
                               0               0                0               0        0.0751749        -47.8483        0.0279891         26.1871
76.8                           0               0                0               0         0.302866        -51.0307         0.935397        -141.988
                               0               0                0               0         0.935324         -142.01         0.302908        -50.9984
                               0               0                0               0        0.0270892         35.3997        0.0736293        -50.4726
                               0               0                0               0        0.0736781        -50.4677        0.0271502         35.3877
76.845                         0               0                0               0         0.300351        -52.4845         0.933826        -143.519
                               0               0                0               0         0.933759         -143.54         0.300394        -52.4539
                               0               0                0               0        0.0272768         44.7926        0.0721283        -53.0756
                               0               0                0               0        0.0721686        -53.0666        0.0273361         44.7541
76.89                          0               0                0               0         0.297845        -53.9103          0.93205        -145.035
                               0               0                0               0         0.931992        -145.056         0.297889        -53.8815
                               0               0                0               0        0.0284381         53.5383        0.0706209        -55.6588
                               0               0                0               0        0.0706516         -55.645        0.0284934         53.4778
76.935                         0               0                0               0         0.295356        -55.3077         0.930078        -146.535
                               0               0                0               0         0.930034        -146.555           0.2954        -55.2809
                               0               0                0               0        0.0304243         61.0766        0.0691118        -58.2226
                               0               0                0               0        0.0691321        -58.2032        0.0304741         61.0014
76.98                          0               0                0               0          0.29289        -56.6767         0.927922        -148.019
                               0               0                0               0         0.927896        -148.038         0.292934         -56.652
                               0               0                0               0        0.0330475         67.2108        0.0676056        -60.7677
                               0               0                0               0        0.0676146        -60.7418        0.0330912         67.1279
77.025                         0               0                0               0         0.290454        -58.0173         0.925594        -149.487
                               0               0                0               0         0.925591        -149.504         0.290498        -57.9949
                               0               0                0               0        0.0361296         72.0114        0.0661063         -63.295
                               0               0                0               0        0.0661035        -63.2616        0.0361672         71.9259
77.07                          0               0                0               0         0.288054        -59.3299         0.923109        -150.938
                               0               0                0               0         0.923132        -150.953         0.288098        -59.3098
                               0               0                0               0        0.0395247         75.6706        0.0646177        -65.8057
                               0               0                0               0        0.0646027        -65.7639        0.0395565         75.5856
77.115                         0               0                0               0         0.285696        -60.6146         0.920479        -152.372
                               0               0                0               0         0.920534        -152.385         0.285739         -60.597
                               0               0                0               0        0.0431222         78.4038        0.0631434        -68.3012
                               0               0                0               0        0.0631158        -68.2501        0.0431487         78.3209
77.16                          0               0                0               0         0.283386         -61.872         0.917721        -153.789
                               0               0                0               0         0.917812          -153.8         0.283427        -61.8571
                               0               0                0               0        0.0468408         80.4041        0.0616864        -70.7832
                               0               0                0               0         0.061646        -70.7217        0.0468625         80.3244
77.205                         0               0                0               0         0.281129        -63.1028          0.91485        -155.189