! TOUCHSTONE file generated by CST MICROWAVE STUDIO
! Date and time: Sun Jun 20 22:37:11 2021
! Project name: HIPS_d_sweep.cst
! Parameters = {fmax=120; fmin=75; b=0.46; d=19.2; a=0.63; phi=0; theta=0}
! Header version: 2018
! Port assignment regex: !\s*Touchstone port\s*([0-9]+)\s*=\s*(CST MWS port|CST DS port)\s*([0-9]+|Zmin|Zmax)\s*\(\"(.*)\"\)(\s*mode\s*([0-9]+))?.*
! Touchstone port assignment:
! Touchstone port 1 = CST MWS port Zmin ("") mode 1
! Touchstone port 2 = CST MWS port Zmin ("") mode 2
! Touchstone port 3 = CST MWS port Zmax ("") mode 1
! Touchstone port 4 = CST MWS port Zmax ("") mode 2
! S-Parameters are not renormalized. Unphysical impedance of 0 will be written to the file.
# GHz S MA R 0
75                             0               0                0               0         0.230637        -154.219         0.949697         112.886
                               0               0                0               0         0.949648         112.876         0.230583        -154.201
                               0               0                0               0         0.199068         26.7512        0.0716444         65.7002
                               0               0                0               0           0.0717         65.7362         0.199098         26.7391
75.045                         0               0                0               0         0.234169        -154.938         0.950177         112.232
                               0               0                0               0         0.950195         112.211         0.233842        -154.936
                               0               0                0               0         0.198014         26.2319         0.072404         64.9495
                               0               0                0               0        0.0724777         64.9684         0.198043         26.2209
75.09                          0               0                0               0         0.237326        -155.686         0.950306         111.524
                               0               0                0               0         0.950379         111.497         0.236849        -155.699
                               0               0                0               0         0.196845         25.6513        0.0731087         64.0985
                               0               0                0               0        0.0731962         64.1051         0.196874         25.6412
75.135                         0               0                0               0         0.240119        -156.472          0.95015         110.759
                               0               0                0               0         0.950261         110.729         0.239588        -156.496
                               0               0                0               0         0.195571         25.0094         0.073761         63.1417
                               0               0                0               0        0.0738579           63.14         0.195601         24.9998
75.18                          0               0                0               0         0.242563        -157.304         0.949779         109.935
                               0               0                0               0         0.949905         109.905         0.242048        -157.332
                               0               0                0               0         0.194202         24.3065        0.0743643         62.0748
                               0               0                0               0         0.074466         62.0682         0.194233         24.2972
75.225                         0               0                0               0         0.244674        -158.185         0.949261         109.052
                               0               0                0               0         0.949381         109.023         0.244223        -158.212
                               0               0                0               0         0.192743         23.5434        0.0749223         60.8948
                               0               0                0               0        0.0750244         60.8857         0.192775         23.5342
75.27                          0               0                0               0          0.24647         -159.12         0.948664         108.108
                               0               0                0               0         0.948756         108.083          0.24611         -159.14
                               0               0                0               0         0.191199         22.7213        0.0754388         59.5998
                               0               0                0               0        0.0755373         59.5903         0.191232          22.712
75.315                         0               0                0               0         0.247967         -160.11         0.948052         107.104
                               0               0                0               0         0.948098         107.083          0.24771         -160.12
                               0               0                0               0          0.18957         21.8414        0.0759174         58.1897
                               0               0                0               0        0.0760089          58.181         0.189604         21.8321
75.36                          0               0                0               0         0.249184        -161.158         0.947481          106.04
                               0               0                0               0         0.947467         106.024         0.249028        -161.155
                               0               0                0               0         0.187856         20.9055        0.0763613         56.6652
                               0               0                0               0         0.076443         56.6582         0.187892         20.8958
75.405                         0               0                0               0         0.250135        -162.262         0.946999         104.919
                               0               0                0               0         0.946919         104.907          0.25007        -162.246
                               0               0                0               0         0.186054         19.9151        0.0767728         55.0285
                               0               0                0               0        0.0768428         55.0237         0.186091         19.9051
75.45                          0               0                0               0         0.250836        -163.423         0.946646         103.742
                               0               0                0               0         0.946499         103.734         0.250846        -163.395
                               0               0                0               0         0.184161          18.872        0.0771535         53.2827
                               0               0                0               0        0.0772105         53.2803         0.184199         18.8615
75.495                         0               0                0               0           0.2513         -164.64         0.946454         102.511
                               0               0                0               0         0.946244         102.507         0.251366        -164.601
                               0               0                0               0          0.18217         17.7779        0.0775037         51.4317
                               0               0                0               0        0.0775473          51.432         0.182209          17.767
75.54                          0               0                0               0         0.251539        -165.911         0.946442         101.229
                               0               0                0               0         0.946179         101.228         0.251644        -165.865
                               0               0                0               0         0.180075         16.6348         0.077823         49.4805
                               0               0                0               0        0.0778535         49.4834         0.180114         16.6233
75.585                         0               0                0               0         0.251566        -167.234         0.946623         99.8983
                               0               0                0               0         0.946321         99.9003         0.251692        -167.185
                               0               0                0               0         0.177868         15.4447        0.0781098         47.4346
                               0               0                0               0        0.0781279           47.44         0.177908         15.4325
75.63                          0               0                0               0         0.251391        -168.608            0.947         98.5225
                               0               0                0               0         0.946676         98.5261         0.251522        -168.559
                               0               0                0               0         0.175542         14.2094        0.0783618         45.2998
                               0               0                0               0        0.0783689         45.3079         0.175581         14.1966
75.675                         0               0                0               0         0.251023         -170.03         0.947569         97.1042
                               0               0                0               0         0.947243         97.1087         0.251148        -169.985
                               0               0                0               0         0.173087         12.9312        0.0785758         43.0826
                               0               0                0               0        0.0785735         43.0934         0.173126         12.9177
75.72                          0               0                0               0         0.250473        -171.498         0.948316         95.6461
                               0               0                0               0         0.948008         95.6509         0.250583         -171.46
                               0               0                0               0         0.170494         11.6125        0.0787481         40.7897
                               0               0                0               0        0.0787382         40.8032         0.170533         11.5983
75.765                         0               0                0               0          0.24975        -173.009         0.949225         94.1512
                               0               0                0               0         0.948956         94.1557         0.249838        -172.981
                               0               0                0               0         0.167756         10.2556        0.0788746         38.4278
                               0               0                0               0        0.0788592         38.4442         0.167794         10.2407
75.81                          0               0                0               0         0.248863         -174.56         0.950274         92.6222
                               0               0                0               0         0.950061          92.626         0.248927        -174.543
                               0               0                0               0         0.164865         8.86342         0.078951          36.004
                               0               0                0               0        0.0789321         36.0234         0.164902          8.8479
75.855                         0               0                0               0         0.247822        -176.148         0.951435         91.0617
                               0               0                0               0         0.951295         91.0644         0.247862        -176.145
                               0               0                0               0         0.161812         7.43888         0.078973         33.5252
                               0               0                0               0        0.0789528         33.5476         0.161848         7.42272
75.9                           0               0                0               0         0.246634        -177.771         0.952681         89.4725
                               0               0                0               0         0.952624         89.4737         0.246652        -177.781
                               0               0                0               0         0.158592         5.98525        0.0789369         30.9982
                               0               0                0               0         0.078917         31.0238         0.158627         5.96852
75.945                         0               0                0               0         0.245311        -179.426         0.953981         87.8571
                               0               0                0               0         0.954015         87.8566          0.24531        -179.448
                               0               0                0               0           0.1552         4.50613        0.0788391         28.4297
                               0               0                0               0        0.0788212         28.4586         0.155233         4.48888
75.99                          0               0                0               0         0.243862         178.891         0.955304         86.2179
                               0               0                0               0         0.955431         86.2156         0.243847         178.857
                               0               0                0               0         0.151632         3.00542        0.0786768         25.8262
                               0               0                0               0        0.0786622         25.8584         0.151664         2.98772
76.035                         0               0                0               0         0.242297         177.182         0.956622         84.5575
                               0               0                0               0         0.956838         84.5532         0.242272         177.139
                               0               0                0               0         0.147886         1.48735         0.078448         23.1938
                               0               0                0               0        0.0784375         23.2294         0.147917         1.46926
76.08                          0               0                0               0         0.240628          175.45         0.957907         82.8782
                               0               0                0               0         0.958202         82.8721         0.240597         175.401
                               0               0                0               0         0.143962      -0.0435737        0.0781513         20.5381
                               0               0                0               0        0.0781457          20.577         0.143993      -0.0619919
76.125                         0               0                0               0         0.238864         173.699         0.959137         81.1827
                               0               0                0               0         0.959494         81.1748         0.238833         173.645
                               0               0                0               0         0.139863        -1.58255        0.0777864         17.8643
                               0               0                0               0        0.0777861         17.9066         0.139895        -1.60125
76.17                          0               0                0               0         0.237018          171.93         0.960296         79.4732
                               0               0                0               0         0.960692         79.4639         0.236989         171.875
                               0               0                0               0         0.135594        -3.12459         0.077354         15.1771
                               0               0                0               0        0.0773588         15.2227         0.135626        -3.14355
76.215                         0               0                0               0         0.235102         170.146         0.961371         77.7524
                               0               0                0               0         0.961782         77.7422         0.235077         170.093
                               0               0                0               0          0.13116        -4.66457        0.0768556         12.4804
                               0               0                0               0         0.076865         12.5292         0.131194        -4.68378
76.26                          0               0                0               0         0.233127         168.351         0.962364         76.0229
                               0               0                0               0         0.962759         76.0124         0.233108         168.302
                               0               0                0               0         0.126571        -6.19731        0.0762936         9.77755
                               0               0                0               0        0.0763068          9.8294         0.126607        -6.21682
76.305                         0               0                0               0         0.231108         166.547         0.963282         74.2875
                               0               0                0               0         0.963635         74.2773         0.231094         166.503
                               0               0                0               0         0.121838        -7.71774         0.075671          7.0711
                               0               0                0               0        0.0756872         7.12581         0.121876        -7.73764
76.35                          0               0                0               0         0.229056         164.735         0.964147         72.5489
                               0               0                0               0         0.964434         72.5399         0.229047         164.698
                               0               0                0               0         0.116974        -9.22098        0.0749918         4.36301
                               0               0                0               0        0.0750096         4.42033         0.117014        -9.24138
76.395                         0               0                0               0         0.226985         162.919         0.964989         70.8101
                               0               0                0               0         0.965197         70.8029          0.22698         162.888
                               0               0                0               0         0.111992        -10.7024        0.0742604         1.65462
                               0               0                0               0        0.0742785          1.7142         0.112035        -10.7235
76.44                          0               0                0               0         0.224909           161.1         0.965848         69.0743
                               0               0                0               0         0.965979         69.0691         0.224906         161.074
                               0               0                0               0         0.106907        -12.1577        0.0734816        -1.05314
                               0               0                0               0        0.0734988       -0.991749         0.106954        -12.1797
76.485                         0               0                0               0         0.222841          159.28         0.966767         67.3446
                               0               0                0               0          0.96684         67.3409         0.222838         159.258
                               0               0                0               0         0.101736        -13.5826        0.0726608        -3.75947
                               0               0                0               0        0.0726756        -3.69683         0.101786        -13.6057
76.53                          0               0                0               0         0.220793         157.461         0.967777         65.6237
                               0               0                0               0         0.967828         65.6207         0.220791          157.44
                               0               0                0               0        0.0964921        -14.9724        0.0718029         -6.4633
                               0               0                0               0        0.0718144        -6.40001        0.0965449        -14.9969
76.575                         0               0                0               0         0.218777         155.645         0.968886         63.9142
                               0               0                0               0         0.968955         63.9105         0.218777         155.624
                               0               0                0               0        0.0911888         -16.321        0.0709127         -9.1626
                               0               0                0               0        0.0709202        -9.09921        0.0912443         -16.347
76.62                          0               0                0               0         0.216803         153.836         0.970057         62.2174
                               0               0                0               0         0.970172         62.2118         0.216806         153.812
                               0               0                0               0        0.0858371        -17.6186        0.0699936        -11.8537
                               0               0                0               0        0.0699969        -11.7905        0.0858947        -17.6466
76.665                         0               0                0               0         0.214874         152.036         0.971192         60.5337
                               0               0                0               0         0.971347         60.5262         0.214882          152.01
                               0               0                0               0        0.0804445         -18.849        0.0690464        -14.5305
                               0               0                0               0        0.0690456        -14.4673        0.0805042        -18.8792
76.71                          0               0                0               0         0.212987         150.253         0.972129         58.8621
                               0               0                0               0         0.972276         58.8545         0.212998         150.227
                               0               0                0               0        0.0750157        -19.9845        0.0680672        -17.1838
                               0               0                0               0        0.0680628        -17.1197        0.0750776        -20.0175
76.755                         0               0                0               0         0.211121         148.497          0.97267         57.2012
                               0               0                0               0         0.972725         57.1973         0.211131         148.476
                               0               0                0               0        0.0695538        -20.9799        0.0670453        -19.8021
                               0               0                0               0        0.0670375        -19.7357        0.0696185        -21.0166
76.8                           0               0                0               0         0.209229         146.788          0.97263         55.5502
                               0               0                0               0         0.972507         55.5542         0.209236         146.774
                               0               0                0               0        0.0640641        -21.7646        0.0659602        -22.3721
                               0               0                0               0        0.0659491        -22.3022        0.0641318        -21.8061
76.845                         0               0                0               0         0.207233         145.157         0.971929          53.911
                               0               0                0               0         0.971597         53.9255         0.207237         145.146
                               0               0                0               0        0.0585605        -22.2322          0.06478        -24.8809
                               0               0                0               0        0.0647655        -24.8084        0.0586304        -22.2798
76.89                          0               0                0               0         0.205016         143.649          0.97086         52.3032
                               0               0                0               0         0.970899          52.299         0.205035         143.627
                               0               0                0               0        0.0530757        -22.2241        0.0634579        -27.3119
                               0               0                0               0          0.06344        -27.2425        0.0531439         -22.278
76.935                         0               0                0               0         0.202464         142.314         0.964749         50.9127
                               0               0                0               0         0.964619         50.5946         0.202514         142.269
                               0               0                0               0        0.0476729        -21.4731        0.0619299        -29.6177
                               0               0                0               0        0.0619034         -29.559        0.0477288        -21.5312
76.98                          0               0                0               0         0.199542         141.189          0.96171         49.0673
                               0               0                0               0          0.96174         49.0631         0.199563         141.166
                               0               0                0               0         0.042337        -19.1396        0.0601836        -31.6093
                               0               0                0               0        0.0601615        -31.5355         0.042402        -19.2183
77.025                         0               0                0               0         0.196376         140.258         0.958159          47.467
                               0               0                0               0         0.957794          47.494         0.196116         140.527
                               0               0                0               0        0.0356399        -18.3258        0.0587383        -33.0896
                               0               0                0               0        0.0588441        -33.1276        0.0351347        -19.2787
77.07                          0               0                0               0         0.193226         139.437          0.95377         45.8997
                               0               0                0               0         0.953304         45.9359         0.192321         141.043
                               0               0                0               0        0.0318491        -14.5507        0.0578127        -34.9625
                               0               0                0               0        0.0577379        -35.1938         0.031908        -15.1496
77.115                         0               0                0               0         0.190341         138.614         0.948926         44.3571
                               0               0                0               0         0.948465         44.3952         0.198068         147.931
                               0               0                0               0        0.0278759        -8.49475        0.0565267        -37.2056
                               0               0                0               0        0.0562964        -37.3801        0.0279256        -9.01013
77.16                          0               0                0               0         0.187849         137.714         0.943809         42.8386
                               0               0                0               0         0.943403         42.8744         0.211894         128.832
                               0               0                0               0        0.0245729       -0.178013        0.0549739        -39.3661
                               0               0                0               0        0.0547076        -39.4568        0.0245897       -0.680359
77.205                         0               0                0               0         0.185756         136.715         0.938542         41.3438