! TOUCHSTONE file generated by CST MICROWAVE STUDIO
! Date and time: Sun Jun 20 22:37:39 2021
! Project name: HIPS_d_sweep.cst
! Parameters = {fmax=120; fmin=75; b=0.46; d=22.2; a=0.63; phi=0; theta=0}
! Header version: 2018
! Port assignment regex: !\s*Touchstone port\s*([0-9]+)\s*=\s*(CST MWS port|CST DS port)\s*([0-9]+|Zmin|Zmax)\s*\(\"(.*)\"\)(\s*mode\s*([0-9]+))?.*
! Touchstone port assignment:
! Touchstone port 1 = CST MWS port Zmin ("") mode 1
! Touchstone port 2 = CST MWS port Zmin ("") mode 2
! Touchstone port 3 = CST MWS port Zmax ("") mode 1
! Touchstone port 4 = CST MWS port Zmax ("") mode 2
! S-Parameters are not renormalized. Unphysical impedance of 0 will be written to the file.
# GHz S MA R 0
75                             0               0                0               0        0.0300977        -122.461         0.973441          132.31
                               0               0                0               0         0.973544         132.319        0.0300289        -122.539
                               0               0                0               0         0.224143         42.5109        0.0356234         53.3061
                               0               0                0               0        0.0356294         53.2189         0.224178         42.5115
75.045                         0               0                0               0        0.0335645        -124.546         0.974107         131.571
                               0               0                0               0         0.974272         131.575        0.0333565         -124.61
                               0               0                0               0            0.224         41.8969        0.0363075         54.6399
                               0               0                0               0         0.036135         54.9401         0.224014         41.8908
75.09                          0               0                0               0        0.0367795        -126.406         0.974534         130.768
                               0               0                0               0         0.974743         130.769        0.0364844        -126.473
                               0               0                0               0         0.223704         41.1848        0.0368004         55.3779
                               0               0                0               0        0.0365375         55.7682          0.22371         41.1743
75.135                         0               0                0               0        0.0397206        -128.121         0.974767         129.899
                               0               0                0               0         0.975002         129.898        0.0393818        -128.195
                               0               0                0               0          0.22329         40.3779        0.0371951         55.6202
                               0               0                0               0        0.0369064         55.9805         0.223294         40.3652
75.18                          0               0                0               0        0.0423704        -129.739         0.974848         128.964
                               0               0                0               0         0.975093         128.963        0.0420223         -129.82
                               0               0                0               0          0.22278         39.4807        0.0375441         55.4587
                               0               0                0               0        0.0372686         55.7481         0.222787         39.4675
75.225                         0               0                0               0        0.0447152        -131.293         0.974818         127.962
                               0               0                0               0         0.975058         127.961        0.0443835        -131.379
                               0               0                0               0         0.222189          38.498        0.0378753          54.968
                               0               0                0               0         0.037633         55.1796         0.222201         38.4857
75.27                          0               0                0               0        0.0467453        -132.805         0.974716         126.893
                               0               0                0               0         0.974941         126.893        0.0464478        -132.894
                               0               0                0               0         0.221524         37.4349        0.0382018         54.2059
                               0               0                0               0         0.038001         54.3462         0.221542         37.4244
75.315                         0               0                0               0        0.0484546        -134.293         0.974578         125.758
                               0               0                0               0         0.974778          125.76         0.048202        -134.381
                               0               0                0               0         0.220787          36.296        0.0385285         53.2159
                               0               0                0               0        0.0383701         53.2964          0.22081         36.2881
75.36                          0               0                0               0        0.0498406        -135.767         0.974435         124.557
                               0               0                0               0         0.974604         124.561        0.0496377        -135.853
                               0               0                0               0         0.219973         35.0859        0.0388553         52.0308
                               0               0                0               0        0.0387365         52.0636         0.220001         35.0808
75.405                         0               0                0               0        0.0509043        -137.235         0.974315         123.292
                               0               0                0               0          0.97445         123.297        0.0507509        -137.316
                               0               0                0               0         0.219074         33.8086        0.0391795         50.6757
                               0               0                0               0        0.0390953         50.6719         0.219107         33.8063
75.45                          0               0                0               0        0.0516494        -138.703         0.974241         121.964
                               0               0                0               0          0.97434         121.971        0.0515421        -138.779
                               0               0                0               0         0.218081         32.4677        0.0394965         49.1695
                               0               0                0               0        0.0394415         49.1389         0.218117         32.4681
75.495                         0               0                0               0         0.052083        -140.176         0.974232         120.576
                               0               0                0               0         0.974296         120.584        0.0520157        -140.245
                               0               0                0               0         0.216981         31.0664        0.0398011         47.5272
                               0               0                0               0        0.0397695         47.4778          0.21702         31.0693
75.54                          0               0                0               0        0.0522143        -141.655           0.9743         119.129
                               0               0                0               0         0.974331         119.138        0.0521798        -141.718
                               0               0                0               0         0.215758         29.6077        0.0400872         45.7604
                               0               0                0               0        0.0400737         45.6989           0.2158         29.6129
75.585                         0               0                0               0        0.0520547        -143.143         0.974454         117.626
                               0               0                0               0         0.974457         117.636        0.0520453          -143.2
                               0               0                0               0           0.2144         28.0944        0.0403485         43.8788
                               0               0                0               0        0.0403483         43.8107         0.214444         28.1014
75.63                          0               0                0               0        0.0516175        -144.641           0.9747         116.069
                               0               0                0               0         0.974679          116.08        0.0516258        -144.692
                               0               0                0               0          0.21289          26.529        0.0405785         41.8908
                               0               0                0               0        0.0405875         41.8202         0.212936         26.5374
75.675                         0               0                0               0        0.0509174        -146.149         0.975037         114.462
                               0               0                0               0         0.974998         114.473        0.0509369        -146.194
                               0               0                0               0         0.211214         24.9139        0.0407706         39.8036
                               0               0                0               0        0.0407857         39.7336         0.211261         24.9234
75.72                          0               0                0               0        0.0499701        -147.666         0.975463         112.807
                               0               0                0               0          0.97541         112.818        0.0499953        -147.706
                               0               0                0               0         0.209356         23.2515        0.0409186         37.6239
                               0               0                0               0        0.0409372         37.5568         0.209404         23.2618
75.765                         0               0                0               0        0.0487922        -149.192         0.975972         111.107
                               0               0                0               0         0.975911         111.118         0.048819        -149.227
                               0               0                0               0         0.207303         21.5444        0.0410161          35.358
                               0               0                0               0        0.0410364         35.2952         0.207353         21.5552
75.81                          0               0                0               0        0.0474006        -150.725         0.976556         109.366
                               0               0                0               0         0.976492         109.376        0.0474262        -150.755
                               0               0                0               0         0.205041         19.7949        0.0410575         33.0122
                               0               0                0               0        0.0410783         32.9546         0.205093         19.8059
75.855                         0               0                0               0        0.0458123        -152.262         0.977207         107.588
                               0               0                0               0         0.977143         107.597        0.0458354        -152.288
                               0               0                0               0          0.20256         18.0057        0.0410373          30.593
                               0               0                0               0         0.041058         30.5407         0.202613         18.0167
75.9                           0               0                0               0        0.0440445        -153.802         0.977915         105.774
                               0               0                0               0         0.977853         105.782        0.0440646        -153.823
                               0               0                0               0          0.19985         16.1793         0.040951         28.1066
                               0               0                0               0        0.0409714         28.0594         0.199904         16.1903
75.945                         0               0                0               0        0.0421141        -155.339          0.97867         103.929
                               0               0                0               0         0.978611         103.936        0.0421314        -155.355
                               0               0                0               0         0.196902         14.3186        0.0407944         25.5598
                               0               0                0               0        0.0408147         25.5171         0.196958         14.3295
75.99                          0               0                0               0        0.0400374        -156.869         0.979461         102.056
                               0               0                0               0         0.979407         102.062         0.040053        -156.879
                               0               0                0               0         0.193712         12.4266        0.0405645         22.9594
                               0               0                0               0        0.0405852         22.9202         0.193768         12.4374
76.035                         0               0                0               0        0.0378306        -158.386         0.980281         100.159
                               0               0                0               0         0.980232         100.163        0.0378454        -158.387
                               0               0                0               0         0.190275         10.5063         0.040259         20.3123
                               0               0                0               0        0.0402806         20.2757         0.190333          10.517
76.08                          0               0                0               0        0.0355091         -159.88         0.981122         98.2395
                               0               0                0               0         0.981078          98.243        0.0355243        -159.869
                               0               0                0               0         0.186592         8.56074        0.0398766         17.6256
                               0               0                0               0        0.0398998         17.5907          0.18665         8.57155
76.125                         0               0                0               0        0.0330882         -161.34         0.981979         96.3019
                               0               0                0               0          0.98194         96.3045        0.0331041        -161.314
                               0               0                0               0         0.182662         6.59332         0.039417         14.9067
                               0               0                0               0        0.0394423         14.8726         0.182722         6.60433
76.17                          0               0                0               0        0.0305824        -162.749         0.982847         94.3492
                               0               0                0               0         0.982814          94.351        0.0305991        -162.702
                               0               0                0               0         0.178491         4.60732        0.0388806         12.1626
                               0               0                0               0        0.0389085         12.1287         0.178551          4.6187
76.215                         0               0                0               0        0.0280062        -164.083         0.983725         92.3842
                               0               0                0               0         0.983698         92.3854        0.0280228         -164.01
                               0               0                0               0         0.174084         2.60617        0.0382689         9.40084
                               0               0                0               0        0.0382997         9.36682         0.174146         2.61809
76.26                          0               0                0               0        0.0253739        -165.309         0.984611         90.4101
                               0               0                0               0         0.984592         90.4107        0.0253886        -165.201
                               0               0                0               0          0.16945        0.593336         0.037584         6.62852
                               0               0                0               0        0.0376176         6.59454         0.169512        0.605945
76.305                         0               0                0               0        0.0227001        -166.376         0.985503         88.4295
                               0               0                0               0         0.985497         88.4298        0.0227102        -166.222
                               0               0                0               0         0.164599        -1.42765        0.0368286         3.85297
                               0               0                0               0        0.0368649          3.8196         0.164661        -1.41422
76.35                          0               0                0               0             0.02        -167.205         0.986399         86.4454
                               0               0                0               0         0.986411         86.4453        0.0200023        -166.989
                               0               0                0               0         0.159541        -3.45314        0.0360057         1.08148
                               0               0                0               0        0.0360445         1.04978         0.159605        -3.43881
76.395                         0               0                0               0        0.0172907        -167.666         0.987294         84.4603
                               0               0                0               0          0.98733         84.4599        0.0172814        -167.369
                               0               0                0               0          0.15429        -5.47937        0.0351187         -1.6785
                               0               0                0               0        0.0351594        -1.70703         0.154354        -5.46413
76.44                          0               0                0               0        0.0145923        -167.537         0.988178         82.4769
                               0               0                0               0         0.988246         82.4761        0.0145677        -167.128
                               0               0                0               0         0.148858        -7.50233        0.0341712        -4.41926
                               0               0                0               0        0.0342131        -4.44277         0.148923        -7.48623
76.485                         0               0                0               0        0.0119319        -166.405         0.989034         80.4977
                               0               0                0               0         0.989141         80.4965        0.0118895        -165.832
                               0               0                0               0         0.143258        -9.51769        0.0331665        -7.13262
                               0               0                0               0        0.0332089          -7.149         0.143324        -9.50086
76.53                          0               0                0               0       0.00935252        -163.433         0.989837         78.5252
                               0               0                0               0          0.98999         78.5234       0.00929276        -162.596
                               0               0                0               0         0.137504        -11.5206        0.0321079        -9.80964
                               0               0                0               0        0.0321501        -9.81672         0.137571        -11.5032
76.575                         0               0                0               0       0.00693917         -156.74          0.99055         76.5617
                               0               0                0               0         0.990752         76.5593        0.0068703        -155.422
                               0               0                0               0         0.131606        -13.5054        0.0309985        -12.4402
                               0               0                0               0          0.03104         -12.436         0.131673        -13.4877
76.62                          0               0                0               0       0.00490516        -141.867         0.991123         74.6092
                               0               0                0               0         0.991373         74.6064        0.0048566        -139.607
                               0               0                0               0         0.125576        -15.4654        0.0298412        -15.0128
                               0               0                0               0        0.0298814        -14.9956         0.125644        -15.4476
76.665                         0               0                0               0       0.00381712        -112.215         0.991493         72.6698
                               0               0                0               0         0.991786         72.6668       0.00385813        -108.939
                               0               0                0               0         0.119424        -17.3924        0.0286385        -17.5133
                               0               0                0               0        0.0286772        -17.4823         0.119491        -17.3747
76.71                          0               0                0               0        0.0043367        -78.8346         0.991587         70.7452
                               0               0                0               0         0.991909         70.7423        0.0044896        -76.3604
                               0               0                0               0         0.113159        -19.2759        0.0273932         -19.925
                               0               0                0               0        0.0274305        -19.8802         0.113225        -19.2583
76.755                         0               0                0               0       0.00597327        -60.3026         0.991322         68.8365
                               0               0                0               0         0.991652         68.8346       0.00617881        -58.8161
                               0               0                0               0         0.106788        -21.1028        0.0261082        -22.2269
                               0               0                0               0        0.0261441        -22.1699         0.106854        -21.0852
76.8                           0               0                0               0       0.00799608        -52.3525         0.990611          66.945
                               0               0                0               0         0.990923         66.9448       0.00821644        -51.3228
                               0               0                0               0         0.100323        -22.8559        0.0247868        -24.3932
                               0               0                0               0        0.0248217        -24.3271         0.100388        -22.8377
76.845                         0               0                0               0        0.0101114        -49.3766         0.989372         65.0712
                               0               0                0               0         0.989635         65.0737        0.0103251         -48.578
                               0               0                0               0        0.0937732        -24.5128        0.0234334        -26.3912
                               0               0                0               0        0.0234677         -26.321        0.0938362        -24.4932
76.89                          0               0                0               0        0.0122172         -48.918         0.987534         63.2156
                               0               0                0               0         0.987719         63.2217        0.0124085        -48.2833
                               0               0                0               0        0.0871536        -26.0442        0.0220538        -28.1797
                               0               0                0               0        0.0220879        -28.1128        0.0872151        -26.0219
76.935                         0               0                0               0        0.0142752        -49.9106         0.985045         61.3788
                               0               0                0               0         0.985125         61.3893        0.0144325        -49.4331
                               0               0                0               0        0.0804834        -27.4115        0.0206559        -29.7074
                               0               0                0               0        0.0206897        -29.6535        0.0805438        -27.3846
76.98                          0               0                0               0        0.0162727        -51.8368         0.981877         59.5612
                               0               0                0               0         0.981836         59.5766        0.0163905        -51.5306
                               0               0                0               0        0.0737884        -28.5638        0.0192503          -30.91
                               0               0                0               0        0.0192832         -30.881        0.0738487        -28.5304
77.025                         0               0                0               0          0.01821        -54.4119         0.978034         57.7635
                               0               0                0               0         0.977864         57.7842        0.0182898        -54.2924
                               0               0                0               0        0.0671029        -29.4342         0.017851        -31.7089
                               0               0                0               0        0.0178817        -31.7184        0.0671645        -29.3918
77.07                          0               0                0               0        0.0200947        -57.4572         0.973546         55.9867
                               0               0                0               0         0.973251         56.0126        0.0201454        -57.5296
                               0               0                0               0        0.0604702        -29.9334        0.0164759        -32.0093
                               0               0                0               0        0.0165022        -32.0719        0.0605354        -29.8798
77.115                         0               0                0               0         0.021938        -60.8452          0.96847         54.2319
                               0               0                0               0         0.968068         54.2627         0.021974        -61.0986
                               0               0                0               0        0.0539445        -29.9417        0.0151475        -31.7021
                               0               0                0               0        0.0151661        -31.8309        0.0540156        -29.8752
77.16                          0               0                0               0        0.0237513        -64.4748         0.962887         52.5004
                               0               0                0               0         0.962402         52.5354        0.0237895        -64.8807
                               0               0                0               0        0.0475915        -29.2955        0.0138926        -30.6691
                               0               0                0               0        0.0138999        -30.8727        0.0476707        -29.2156
77.205                         0               0                0               0        0.0255437        -68.2605         0.956891         50.7936