! TOUCHSTONE file generated by CST MICROWAVE STUDIO
! Date and time: Sun Jun 20 22:38:01 2021
! Project name: HIPS_d_sweep.cst
! Parameters = {fmax=120; fmin=75; b=0.46; d=24.15; a=0.63; phi=0; theta=0}
! Header version: 2018
! Port assignment regex: !\s*Touchstone port\s*([0-9]+)\s*=\s*(CST MWS port|CST DS port)\s*([0-9]+|Zmin|Zmax)\s*\(\"(.*)\"\)(\s*mode\s*([0-9]+))?.*
! Touchstone port assignment:
! Touchstone port 1 = CST MWS port Zmin ("") mode 1
! Touchstone port 2 = CST MWS port Zmin ("") mode 2
! Touchstone port 3 = CST MWS port Zmax ("") mode 1
! Touchstone port 4 = CST MWS port Zmax ("") mode 2
! S-Parameters are not renormalized. Unphysical impedance of 0 will be written to the file.
# GHz S MA R 0
75                             0               0                0               0        0.0984256        -179.879         0.980955        -88.1206
                               0               0                0               0         0.981069        -88.1221        0.0986221        -179.969
                               0               0                0               0         0.164788         1.10961        0.0249226        -39.4325
                               0               0                0               0        0.0250112        -39.5854         0.164836         1.10294
75.045                         0               0                0               0        0.0942776         179.258         0.981691        -88.9109
                               0               0                0               0         0.981804        -88.9123        0.0944774         179.163
                               0               0                0               0         0.162883        0.332898        0.0245139        -38.3206
                               0               0                0               0        0.0245992        -38.4854         0.162932        0.326205
75.09                          0               0                0               0        0.0905114         178.346         0.982395         -89.783
                               0               0                0               0         0.982493        -89.7835        0.0906841         178.249
                               0               0                0               0         0.160706       -0.526909        0.0240865        -37.5419
                               0               0                0               0        0.0241638        -37.6994         0.160759       -0.533964
75.135                         0               0                0               0        0.0871601         177.379         0.983079        -90.7363
                               0               0                0               0         0.983156        -90.7354        0.0872921         177.284
                               0               0                0               0         0.158266        -1.46886        0.0236385        -37.0693
                               0               0                0               0        0.0237055        -37.2088         0.158326        -1.47628
75.18                          0               0                0               0        0.0842461         176.352         0.983749          -91.77
                               0               0                0               0         0.983805        -91.7675        0.0843369         176.262
                               0               0                0               0         0.155569        -2.49175        0.0231669        -36.8835
                               0               0                0               0        0.0232228        -37.0006         0.155635        -2.49937
75.225                         0               0                0               0         0.081782         175.262         0.984415        -92.8829
                               0               0                0               0         0.984453        -92.8791        0.0818394          175.18
                               0               0                0               0         0.152616        -3.59426        0.0226679        -36.9717
                               0               0                0               0         0.022713         -37.067         0.152687        -3.60184
75.27                          0               0                0               0        0.0797718         174.106         0.985079        -94.0738
                               0               0                0               0         0.985107        -94.0689        0.0798085         174.034
                               0               0                0               0         0.149407        -4.77502        0.0221369        -37.3275
                               0               0                0               0         0.022172        -37.4051          0.14948        -4.78228
75.315                         0               0                0               0        0.0782115         172.886         0.985745        -95.3413
                               0               0                0               0         0.985773        -95.3357         0.078242         172.825
                               0               0                0               0         0.145936        -6.03265        0.0215683        -37.9497
                               0               0                0               0        0.0215945        -38.0167         0.146008        -6.03931
75.36                          0               0                0               0         0.077091         171.603         0.986414        -96.6839
                               0               0                0               0         0.986452        -96.6779        0.0771295         171.552
                               0               0                0               0         0.142199        -7.36568         0.020956        -38.8423
                               0               0                0               0        0.0209743         -38.908         0.142267        -7.37145
75.405                         0               0                0               0        0.0763951         170.259         0.987086        -98.0996
                               0               0                0               0         0.987144        -98.0937        0.0764537         170.217
                               0               0                0               0         0.138187        -8.77258        0.0202931        -40.0149
                               0               0                0               0        0.0203043        -40.0898         0.138249        -8.77718
75.45                          0               0                0               0        0.0761051         168.858         0.987757        -99.5866
                               0               0                0               0         0.987845         -99.581         0.076193         168.823
                               0               0                0               0         0.133893        -10.2516        0.0195719        -41.4826
                               0               0                0               0        0.0195768        -41.5778         0.133947        -10.2548
75.495                         0               0                0               0        0.0761998         167.401         0.988425        -101.142
                               0               0                0               0         0.988549        -101.137        0.0763228         167.371
                               0               0                0               0          0.12931        -11.8008        0.0187846        -43.2667
                               0               0                0               0        0.0187837        -43.3932         0.129354        -11.8022
75.54                          0               0                0               0        0.0766561         165.893         0.989083        -102.765
                               0               0                0               0         0.989247        -102.761         0.076817         165.865
                               0               0                0               0         0.124428        -13.4179         0.017923        -45.3964
                               0               0                0               0        0.0179168        -45.5644         0.124463        -13.4172
75.585                         0               0                0               0        0.0774507         164.335         0.989726        -104.451
                               0               0                0               0         0.989929        -104.448        0.0776489         164.306
                               0               0                0               0         0.119243           -15.1        0.0169794        -47.9107
                               0               0                0               0        0.0169686        -48.1288         0.119267         -15.097
75.63                          0               0                0               0        0.0785598         162.729         0.990347        -106.198
                               0               0                0               0         0.990585        -106.195        0.0787924         162.697
                               0               0                0               0         0.113748        -16.8436        0.0159473        -50.8631
                               0               0                0               0        0.0159332        -51.1378         0.113765        -16.8381
75.675                         0               0                0               0        0.0799602         161.076         0.990937        -108.003
                               0               0                0               0         0.991203        -108.001        0.0802222         161.038
                               0               0                0               0         0.107943        -18.6446        0.0148223        -54.3281
                               0               0                0               0         0.014807        -54.6637         0.107954        -18.6365
75.72                          0               0                0               0        0.0816295         159.376         0.991488        -109.863
                               0               0                0               0          0.99177        -109.861        0.0819145         159.331
                               0               0                0               0         0.101827        -20.4979        0.0136038        -58.4148
                               0               0                0               0        0.0135904        -58.8127         0.101835        -20.4872
75.765                         0               0                0               0        0.0835463         157.629         0.991992        -111.773
                               0               0                0               0         0.992275        -111.772        0.0838469         157.577
                               0               0                0               0        0.0954057         -22.397         0.012297        -63.2893
                               0               0                0               0        0.0122899        -63.7483        0.0954133         -22.384
75.81                          0               0                0               0        0.0856904         155.836         0.992441        -113.732
                               0               0                0               0         0.992707         -113.73         0.085999         155.775
                               0               0                0               0         0.088686        -24.3344        0.0109165         -69.217
                               0               0                0               0        0.0109209        -69.7319        0.0886977        -24.3196
75.855                         0               0                0               0        0.0880428         153.994         0.992827        -115.733
                               0               0                0               0         0.993059        -115.731         0.088352         153.924
                               0               0                0               0        0.0816813        -26.3005       0.00949127        -76.6383
                               0               0                0               0       0.00951301         -77.196        0.0817007        -26.2848
75.9                           0               0                0               0        0.0905858         152.103         0.993143        -117.775
                               0               0                0               0         0.993322        -117.772        0.0908886         152.026
                               0               0                0               0        0.0744088        -28.2833       0.00807501        -86.2992
                               0               0                0               0       0.00811952        -86.8652        0.0744394        -28.2682
75.945                         0               0                0               0        0.0933033         150.162         0.993384        -119.853
                               0               0                0               0         0.993494        -119.849        0.0935936         150.078
                               0               0                0               0        0.0668909        -30.2677       0.00676651        -99.4151
                               0               0                0               0       0.00683692        -99.8996        0.0669352        -30.2553
75.99                          0               0                0               0        0.0961802         148.171         0.993544        -121.962
                               0               0                0               0         0.993574        -121.957        0.0964531         148.082
                               0               0                0               0         0.059154        -32.2333       0.00574335        -117.543
                               0               0                0               0        0.0058361        -117.747        0.0592138        -32.2266
76.035                         0               0                0               0         0.099203         146.128         0.993623        -124.098
                               0               0                0               0         0.993564        -124.093         0.099455         146.036
                               0               0                0               0        0.0512289        -34.1513        0.0052733        -140.932
                               0               0                0               0       0.00537158        -140.608        0.0513044        -34.1542
76.08                          0               0                0               0          0.10236         144.035         0.993618        -126.258
                               0               0                0               0         0.993471        -126.252         0.102589         143.942
                               0               0                0               0        0.0431496        -35.9765       0.00557178        -165.575
                               0               0                0               0       0.00565083        -164.779        0.0432393        -35.9945
76.125                         0               0                0               0          0.10564         141.892         0.993531        -128.437
                               0               0                0               0         0.993303        -128.431         0.105845         141.801
                               0               0                0               0        0.0349525        -37.6287       0.00657852         173.964
                               0               0                0               0        0.0066273         174.879        0.0350536        -37.6698
76.17                          0               0                0               0         0.109033         139.701         0.993364        -130.631
                               0               0                0               0         0.993074        -130.625         0.109215         139.615
                               0               0                0               0        0.0266757        -38.9378       0.00805553         158.949
                               0               0                0               0       0.00807945         159.753        0.0267838        -39.0151
76.215                         0               0                0               0         0.112533         137.466         0.993122        -132.836
                               0               0                0               0         0.992798         -132.83         0.112693          137.39
                               0               0                0               0        0.0183608        -39.4403       0.00980414         147.991
                               0               0                0               0       0.00981364         148.623        0.0184703        -39.5818
76.26                          0               0                0               0         0.116131         135.194         0.992811        -135.048
                               0               0                0               0          0.99249        -135.042         0.116269          135.13
                               0               0                0               0        0.0100687        -37.1705        0.0117082         139.634
                               0               0                0               0        0.0117127           140.1        0.0101722        -37.4814
76.305                         0               0                0               0         0.119818         132.893         0.992436        -137.262
                               0               0                0               0         0.992163        -137.258         0.119934         132.846
                               0               0                0               0       0.00232006        -1.77645        0.0137042         132.917
                               0               0                0               0        0.0137104         133.236       0.00236922        -4.17318
76.35                          0               0                0               0         0.123582         130.576         0.992006        -139.476
                               0               0                0               0         0.991828        -139.474         0.123673         130.549
                               0               0                0               0       0.00695668         114.658        0.0157553          127.25
                               0               0                0               0        0.0157673         127.449        0.0068588         114.638
76.395                         0               0                0               0         0.127398         128.258         0.991525        -141.685
                               0               0                0               0         0.991489        -141.685         0.127458         128.253
                               0               0                0               0        0.0151149         120.262        0.0178383         122.269
                               0               0                0               0        0.0178574         122.374        0.0150291         120.241
76.44                          0               0                0               0         0.131228         125.958         0.990996        -143.887
                               0               0                0               0          0.99114        -143.888         0.131247         125.973
                               0               0                0               0        0.0233005         120.441        0.0199358         117.742
                               0               0                0               0        0.0199612         117.778        0.0232234         120.382
76.485                         0               0                0               0         0.135005          123.69         0.990418        -146.077
                               0               0                0               0         0.990762        -146.081         0.134975         123.719
                               0               0                0               0         0.031445         119.418         0.022033         113.512
                               0               0                0               0         0.022062         113.504        0.0313709         119.334
76.53                          0               0                0               0          0.13864         121.461         0.989783        -148.254
                               0               0                0               0         0.990319        -148.259         0.138559         121.497
                               0               0                0               0        0.0395332         117.918        0.0241153         109.475
                               0               0                0               0         0.024144         109.444        0.0394557         117.822
76.575                         0               0                0               0         0.142023         119.265         0.989074        -150.414
                               0               0                0               0         0.989755        -150.421         0.141904         119.295
                               0               0                0               0        0.0475543         116.157        0.0261674         105.558
                               0               0                0               0        0.0261916         105.525        0.0474674         116.062
76.62                          0               0                0               0         0.145058         117.078          0.98826        -152.557
                               0               0                0               0         0.988995        -152.563         0.144929         117.095
                               0               0                0               0        0.0554907         114.217        0.0281732          101.71
                               0               0                0               0        0.0281888         101.692        0.0553918         114.136
76.665                         0               0                0               0         0.147687         114.863         0.987296        -154.679
                               0               0                0               0         0.987944        -154.686         0.147586         114.866
                               0               0                0               0        0.0633134         112.136        0.0301155         97.9013
                               0               0                0               0        0.0301193         97.9092        0.0632049         112.078
76.71                          0               0                0               0          0.14991         112.589          0.98612        -156.781
                               0               0                0               0         0.986495        -156.786         0.149871         112.582
                               0               0                0               0        0.0709806         109.938        0.0319771          94.112
                               0               0                0               0         0.031967         94.1539        0.0708704         109.907
76.755                         0               0                0               0         0.151773         110.234         0.984646        -158.862
                               0               0                0               0         0.984532        -158.865         0.151813         110.226
                               0               0                0               0        0.0784396         107.644         0.033741         90.3347
                               0               0                0               0        0.0337167         90.4133        0.0783396         107.641
76.8                           0               0                0               0         0.153342         107.794          0.98277        -160.921
                               0               0                0               0         0.981943        -160.919         0.153464         107.795
                               0               0                0               0        0.0856332         105.279        0.0353915         86.5692
                               0               0                0               0        0.0353542          86.683        0.0855562           105.3
76.845                         0               0                0               0         0.154675          105.28         0.980369        -162.958
                               0               0                0               0         0.978637         -162.95          0.15487         105.295
                               0               0                0               0        0.0925074         102.871        0.0369154         82.8214
                               0               0                0               0        0.0368675         82.9652        0.0924632         102.909
76.89                          0               0                0               0         0.155818         102.708         0.977312        -164.973
                               0               0                0               0         0.974548        -164.954         0.156069          102.74
                               0               0                0               0        0.0990186         100.449         0.038302         79.1013
                               0               0                0               0         0.038247         79.2671        0.0990116         100.494
76.935                         0               0                0               0         0.156795         100.096         0.973468        -166.965
                               0               0                0               0         0.969653        -166.931         0.157088         100.144
                               0               0                0               0         0.105139         98.0384        0.0395444         75.4211
                               0               0                0               0        0.0394863         75.5993         0.105167         98.0841
76.98                          0               0                0               0         0.157619         97.4626         0.968728        -168.932
                               0               0                0               0         0.963975        -168.877         0.157941         97.5233
                               0               0                0               0         0.110855         95.6634        0.0406393         71.7941
                               0               0                0               0         0.040582         71.9742         0.110911         95.7034
77.025                         0               0                0               0         0.158296         94.8215          0.96303        -170.868
                               0               0                0               0         0.957581         -170.79         0.158636         94.8925
                               0               0                0               0         0.116173         93.3412        0.0415871         68.2332
                               0               0                0               0         0.041534         68.4048         0.116245         93.3723
77.07                          0               0                0               0         0.158829         92.1854         0.956377         -172.77
                               0               0                0               0         0.950579        -172.667         0.159178         92.2633
                               0               0                0               0         0.121106         91.0844        0.0423915         64.7501
                               0               0                0               0        0.0423451         64.9039         0.121183         91.1054
77.115                         0               0                0               0         0.159218         89.5642         0.948853         -174.63
                               0               0                0               0         0.943105        -174.508         0.159571         89.6457
                               0               0                0               0         0.125679         88.9005        0.0430589         61.3549
                               0               0                0               0         0.043021         61.4828         0.125749          88.912
77.16                          0               0                0               0         0.159466         86.9657         0.940622        -176.445
                               0               0                0               0         0.935308         -176.31         0.159818         87.0481
                               0               0                0               0         0.129919         86.7931        0.0435982         58.0554
                               0               0                0               0        0.0435693         58.1512         0.129973         86.7967
77.205                         0               0                0               0         0.159577         84.3962         0.931906        -178.211