! TOUCHSTONE file generated by CST MICROWAVE STUDIO
! Date and time: Sun Jun 20 22:37:31 2021
! Project name: HIPS_d_sweep.cst
! Parameters = {fmax=120; fmin=75; b=0.46; d=21.4; a=0.63; phi=0; theta=0}
! Header version: 2018
! Port assignment regex: !\s*Touchstone port\s*([0-9]+)\s*=\s*(CST MWS port|CST DS port)\s*([0-9]+|Zmin|Zmax)\s*\(\"(.*)\"\)(\s*mode\s*([0-9]+))?.*
! Touchstone port assignment:
! Touchstone port 1 = CST MWS port Zmin ("") mode 1
! Touchstone port 2 = CST MWS port Zmin ("") mode 2
! Touchstone port 3 = CST MWS port Zmax ("") mode 1
! Touchstone port 4 = CST MWS port Zmax ("") mode 2
! S-Parameters are not renormalized. Unphysical impedance of 0 will be written to the file.
# GHz S MA R 0
75                             0               0                0               0        0.0911125        -46.9188          0.99545        -136.853
                               0               0                0               0         0.995205        -136.868        0.0912514         -46.724
                               0               0                0               0       0.00295265         21.0462        0.0317771        -46.6281
                               0               0                0               0        0.0318445        -46.6716        0.0028952         21.6463
75.045                         0               0                0               0        0.0948129        -47.6384         0.994985        -137.561
                               0               0                0               0         0.994801        -137.576        0.0949236         -47.437
                               0               0                0               0       0.00307924         66.1433        0.0321437        -47.7567
                               0               0                0               0        0.0322344        -47.8153       0.00318728         66.9773
75.09                          0               0                0               0        0.0981772        -48.4715         0.994609        -138.352
                               0               0                0               0         0.994443        -138.368        0.0982688        -48.2716
                               0               0                0               0       0.00484927         94.5012        0.0323935        -49.0217
                               0               0                0               0        0.0324975        -49.0808       0.00499703         94.0009
75.135                         0               0                0               0         0.101172        -49.4019         0.994306        -139.223
                               0               0                0               0         0.994134        -139.239         0.101253        -49.2095
                               0               0                0               0       0.00742684         106.539        0.0325214        -50.4307
                               0               0                0               0        0.0326304        -50.4815       0.00754399         106.053
75.18                          0               0                0               0         0.103773        -50.4168         0.994059         -140.17
                               0               0                0               0         0.993869        -140.185          0.10385        -50.2363
                               0               0                0               0        0.0104498         112.175        0.0325238        -51.9901
                               0               0                0               0        0.0326311        -52.0284        0.0105248         112.047
75.225                         0               0                0               0         0.105965        -51.5061         0.993853        -141.188
                               0               0                0               0         0.993642        -141.204         0.106045        -51.3402
                               0               0                0               0        0.0138139         115.083        0.0323981        -53.7051
                               0               0                0               0        0.0324987        -53.7299        0.0138542         115.298
75.27                          0               0                0               0         0.107742        -52.6623         0.993671        -142.277
                               0               0                0               0         0.993442        -142.292         0.107829        -52.5123
                               0               0                0               0        0.0174809         116.622        0.0321431        -55.5798
                               0               0                0               0        0.0322338        -55.5928        0.0175004         117.081
75.315                         0               0                0               0         0.109105          -53.88         0.993501        -143.432
                               0               0                0               0          0.99326        -143.447         0.109203        -53.7461
                               0               0                0               0        0.0214314         117.376         0.031759        -57.6182
                               0               0                0               0        0.0318381        -57.6224         0.021445         117.973
75.36                          0               0                0               0         0.110061        -55.1554         0.993332        -144.653
                               0               0                0               0         0.993086        -144.668         0.110173        -55.0368
                               0               0                0               0        0.0256525         117.635        0.0312477        -59.8239
                               0               0                0               0        0.0313146        -59.8234        0.0256721         118.274
75.405                         0               0                0               0         0.110625        -56.4865         0.993157        -145.937
                               0               0                0               0         0.992913        -145.952         0.110751        -56.3817
                               0               0                0               0        0.0301338         117.556        0.0306125        -62.2012
                               0               0                0               0         0.030668        -62.2004        0.0301658         118.155
75.45                          0               0                0               0         0.110814        -57.8718         0.992972        -147.282
                               0               0                0               0         0.992735        -147.297         0.110953        -57.7787
                               0               0                0               0        0.0348659         117.234        0.0298586        -64.7553
                               0               0                0               0        0.0299042        -64.7587        0.0349092         117.728
75.495                         0               0                0               0         0.110649         -59.311         0.992776        -148.687
                               0               0                0               0         0.992548        -148.701           0.1108        -59.2271
                               0               0                0               0        0.0398404         116.737        0.0289925        -67.4937
                               0               0                0               0        0.0290302        -67.5052        0.0398847         117.065
75.54                          0               0                0               0         0.110152         -60.804         0.992572        -150.149
                               0               0                0               0         0.992353        -150.163         0.110313        -60.7266
                               0               0                0               0        0.0450514         116.136        0.0280223        -70.4263
                               0               0                0               0        0.0280546        -70.4495        0.0450745         116.218
75.585                         0               0                0               0         0.109347        -62.3508         0.992363        -151.667
                               0               0                0               0         0.992153         -151.68         0.109514        -62.2771
                               0               0                0               0        0.0504938         115.623        0.0269574        -73.5672
                               0               0                0               0         0.026987        -73.6046        0.0504606         115.222
75.63                          0               0                0               0         0.108256        -63.9515         0.992156        -153.237
                               0               0                0               0         0.991951         -153.25         0.108427        -63.8785
                               0               0                0               0        0.0539001          117.03        0.0258085        -76.9352
                               0               0                0               0        0.0258382        -76.9886        0.0560252         114.106
75.675                         0               0                0               0         0.106904        -65.6055         0.991958        -154.858
                               0               0                0               0         0.991754        -154.871         0.107075        -65.5306
                               0               0                0               0        0.0610698         111.994        0.0245871        -80.5558
                               0               0                0               0        0.0246195        -80.6256        0.0617503         112.889
75.72                          0               0                0               0         0.105311        -67.3119         0.991775        -156.526
                               0               0                0               0          0.99157        -156.539         0.105478        -67.2326
                               0               0                0               0        0.0673286         111.181        0.0233062        -84.4625
                               0               0                0               0        0.0233436        -84.5476        0.0676182         111.585
75.765                         0               0                0               0         0.103499        -69.0689         0.991613        -158.238
                               0               0                0               0         0.991405        -158.252         0.103659         -68.983
                               0               0                0               0        0.0734709         110.022        0.0219796        -88.6987
                               0               0                0               0         0.022024        -88.7967        0.0736103         110.205
75.81                          0               0                0               0         0.101485        -70.8739         0.991476         -159.99
                               0               0                0               0         0.991264        -160.005         0.101635        -70.7795
                               0               0                0               0         0.079681         108.711        0.0206225        -93.3206
                               0               0                0               0        0.0206755        -93.4265         0.079708         108.759
75.855                         0               0                0               0        0.0992885        -72.7229         0.991364        -161.779
                               0               0                0               0         0.991151        -161.796        0.0994258        -72.6184
                               0               0                0               0         0.085967         107.294         0.019252        -98.3992
                               0               0                0               0        0.0193144        -98.5055        0.0858918         107.251
75.9                           0               0                0               0        0.0969246        -74.6108         0.991275        -163.601
                               0               0                0               0         0.991065         -163.62        0.0970472         -74.495
                               0               0                0               0        0.0923131         105.791        0.0178876        -104.023
                               0               0                0               0        0.0179595        -104.119         0.092141         105.687
75.945                         0               0                0               0        0.0944089        -76.5311           0.9912        -165.451
                               0               0                0               0         0.990999        -165.473        0.0945154         -76.403
                               0               0                0               0        0.0986966         104.212        0.0165522        -110.301
                               0               0                0               0        0.0166329        -110.371        0.0984342         104.072
75.99                          0               0                0               0        0.0917564        -78.4753         0.991129        -167.325
                               0               0                0               0         0.990946         -167.35        0.0918456        -78.3347
                               0               0                0               0         0.105092         102.567        0.0152736         -117.36
                               0               0                0               0        0.0153611        -117.382         0.104749         102.409
76.035                         0               0                0               0        0.0889815        -80.4337         0.991046         -169.22
                               0               0                0               0         0.990889        -169.247        0.0890529        -80.2805
                               0               0                0               0         0.111471         100.863        0.0140854        -125.336
                               0               0                0               0        0.0141764        -125.285          0.11106           100.7
76.08                          0               0                0               0        0.0860992        -82.3944         0.990932        -171.131
                               0               0                0               0         0.990811        -171.159        0.0861525        -82.2289
                               0               0                0               0         0.117807         99.1056         0.013028        -134.355
                               0               0                0               0        0.0131174        -134.201         0.117344         98.9501
76.125                         0               0                0               0         0.083125        -84.3438         0.990765        -173.053
                               0               0                0               0         0.990688        -173.083        0.0831602        -84.1665
                               0               0                0               0         0.124071         97.3023        0.0121478        -144.482
                               0               0                0               0        0.0122289        -144.197         0.123575         97.1617
76.17                          0               0                0               0        0.0800754        -86.2664         0.990521        -174.983
                               0               0                0               0         0.990495        -175.014        0.0800928        -86.0782
                               0               0                0               0         0.130234         95.4588        0.0114935        -155.662
                               0               0                0               0        0.0115577        -155.229         0.129727         95.3383
76.215                         0               0                0               0        0.0769682        -88.1451         0.990174        -176.918
                               0               0                0               0         0.990204        -176.949        0.0769682        -87.9469
                               0               0                0               0          0.13627          93.581        0.0111075        -167.644
                               0               0                0               0        0.0111458        -167.073         0.135772         93.4835
76.26                          0               0                0               0        0.0738228        -89.9608         0.989698        -178.853
                               0               0                0               0         0.989787        -178.885        0.0738059        -89.7536
                               0               0                0               0         0.142153         91.6748         0.011014        -179.984
                               0               0                0               0        0.0110185        -179.311         0.141684         91.6013
76.305                         0               0                0               0        0.0706598        -91.6932         0.989067         179.214
                               0               0                0               0         0.989217         179.183        0.0706267         -91.478
                               0               0                0               0         0.147857          89.746        0.0112103         167.865
                               0               0                0               0        0.0111758         168.582         0.147438         89.6956
76.35                          0               0                0               0        0.0675014        -93.3211         0.988257         177.286
                               0               0                0               0         0.988467         177.257        0.0674527        -93.0984
                               0               0                0               0         0.153361         87.8003        0.0116655         156.383
                               0               0                0               0        0.0115907         157.086         0.153008         87.7708
76.395                         0               0                0               0        0.0643706        -94.8222         0.987248         175.365
                               0               0                0               0         0.987514         175.339        0.0643072        -94.5925
                               0               0                0               0         0.158645         85.8429        0.0123305         145.868
                               0               0                0               0        0.0122168         146.513         0.158372         85.8313
76.44                          0               0                0               0        0.0612914        -96.1743         0.986019         173.455
                               0               0                0               0         0.986338         173.431        0.0612144        -95.9375
                               0               0                0               0          0.16369         83.8791        0.0131492          136.42
                               0               0                0               0        0.0130005         136.987         0.163508         83.8817
76.485                         0               0                0               0        0.0582878        -97.3557         0.984555         171.557
                               0               0                0               0         0.984922         171.536        0.0581986        -97.1112
                               0               0                0               0         0.168484         81.9138        0.0140691         128.003
                               0               0                0               0          0.01389         128.485         0.168397         81.9265
76.53                          0               0                0               0        0.0553836         -98.346         0.982845         169.672
                               0               0                0               0         0.983253         169.655         0.055284        -98.0925
                               0               0                0               0         0.173013         79.9516         0.015045          120.51
                               0               0                0               0        0.0148407         120.913         0.173023         79.9704
76.575                         0               0                0               0        0.0526014        -99.1267          0.98088         167.803
                               0               0                0               0         0.981323         167.789        0.0524938        -98.8626
                               0               0                0               0         0.177268         77.9968        0.0160411         113.816
                               0               0                0               0        0.0158169         114.149         0.177373         78.0179
76.62                          0               0                0               0        0.0499627        -99.6826         0.978657         165.951
                               0               0                0               0         0.979128         165.941          0.04985        -99.4061
                               0               0                0               0         0.181244         76.0532        0.0170299         107.802
                               0               0                0               0         0.016791         108.076         0.181435         76.0732
76.665                         0               0                0               0        0.0474867        -100.003         0.976176         164.116
                               0               0                0               0         0.976669         164.109        0.0473724        -99.7117
                               0               0                0               0         0.184938         74.1244        0.0179912         102.366
                               0               0                0               0        0.0177426          102.59         0.185204         74.1406
76.71                          0               0                0               0        0.0451903        -100.082          0.97344         162.301
                               0               0                0               0         0.973949         162.297        0.0450782        -99.7742
                               0               0                0               0         0.188347         72.2135        0.0189108         97.4235
                               0               0                0               0        0.0186572         97.6066         0.188676         72.2238
76.755                         0               0                0               0        0.0430872        -99.9197         0.970456         160.505
                               0               0                0               0         0.970976         160.504        0.0429816         -99.595
                               0               0                0               0         0.191475         70.3233         0.019779         92.9055
                               0               0                0               0        0.0195249         93.0539         0.191848         70.3265
76.8                           0               0                0               0        0.0411881        -99.5253         0.967236         158.729
                               0               0                0               0         0.967761          158.73        0.0410934        -99.1835
                               0               0                0               0         0.194323         68.4562        0.0205902         88.7569
                               0               0                0               0        0.0203396         88.8753         0.194724         68.4517
76.845                         0               0                0               0        0.0394997        -98.9142          0.96379         156.975
                               0               0                0               0         0.964317         156.978        0.0394203        -98.5573
                               0               0                0               0         0.196897         66.6141        0.0213416         84.9328
                               0               0                0               0         0.021098         85.0245         0.197308         66.6024
76.89                          0               0                0               0        0.0380253        -98.1101         0.960136         155.242
                               0               0                0               0         0.960661         155.245        0.0379652         -97.742
                               0               0                0               0         0.199204         64.7987        0.0220327         81.3961
                               0               0                0               0        0.0217991         81.4633         0.199607         64.7808
76.935                         0               0                0               0        0.0367642        -97.1435         0.956291          153.53
                               0               0                0               0          0.95681         153.534        0.0367267        -96.7706
                               0               0                0               0         0.201252         63.0114        0.0226645          78.116
                               0               0                0               0        0.0224436         78.1599         0.201629          62.989
76.98                          0               0                0               0        0.0357119         -96.051         0.952273          151.84
                               0               0                0               0         0.952784         151.844        0.0356995        -95.6816
                               0               0                0               0          0.20305         61.2533        0.0232395         75.0666
                               0               0                0               0        0.0230331         75.0875         0.203385         61.2287
77.025                         0               0                0               0        0.0348607        -94.8724         0.948104         150.172
                               0               0                0               0         0.948604         150.175        0.0348747        -94.5168
                               0               0                0               0         0.204608          59.525        0.0237606         72.2253
                               0               0                0               0        0.0235703         72.2233         0.204887          59.501
77.07                          0               0                0               0           0.0342        -93.6489         0.943805         148.526
                               0               0                0               0         0.944291         148.528        0.0342404        -93.3184
                               0               0                0               0         0.205935         57.8271        0.0242316         69.5726
                               0               0                0               0        0.0240583         69.5474         0.206146         57.8068
77.115                         0               0                0               0        0.0337166        -92.4203         0.939397         146.902
                               0               0                0               0         0.939868         146.901        0.0337822        -92.1266
                               0               0                0               0         0.207042         56.1599        0.0246561         67.0912
                               0               0                0               0        0.0245006         67.0424         0.207177         56.1467
77.16                          0               0                0               0        0.0333961        -91.2229         0.934904         145.299
                               0               0                0               0         0.935356         145.296        0.0334842        -90.9774
                               0               0                0               0          0.20794         54.5234        0.0250383         64.7659
                               0               0                0               0        0.0249005          64.693         0.207993         54.5208
77.205                         0               0                0               0        0.0332229        -90.0876         0.930348         143.718