! TOUCHSTONE file generated by CST MICROWAVE STUDIO
! Date and time: Sun Jun 20 22:37:41 2021
! Project name: HIPS_d_sweep.cst
! Parameters = {fmax=120; fmin=75; b=0.46; d=22.3; a=0.63; phi=0; theta=0}
! Header version: 2018
! Port assignment regex: !\s*Touchstone port\s*([0-9]+)\s*=\s*(CST MWS port|CST DS port)\s*([0-9]+|Zmin|Zmax)\s*\(\"(.*)\"\)(\s*mode\s*([0-9]+))?.*
! Touchstone port assignment:
! Touchstone port 1 = CST MWS port Zmin ("") mode 1
! Touchstone port 2 = CST MWS port Zmin ("") mode 2
! Touchstone port 3 = CST MWS port Zmax ("") mode 1
! Touchstone port 4 = CST MWS port Zmax ("") mode 2
! S-Parameters are not renormalized. Unphysical impedance of 0 will be written to the file.
# GHz S MA R 0
75                             0               0                0               0        0.0256669        -129.532         0.974409         121.257
                               0               0                0               0         0.974499         121.252        0.0256904        -129.414
                               0               0                0               0         0.219457         31.4406          0.03817         39.0009
                               0               0                0               0        0.0382017         39.0558         0.219425         31.4509
75.045                         0               0                0               0         0.029336        -132.761         0.974501         120.533
                               0               0                0               0         0.974592         120.529        0.0293633        -132.672
                               0               0                0               0          0.21856         30.7616        0.0385026         39.4772
                               0               0                0               0        0.0385375         39.5266         0.218529         30.7719
75.09                          0               0                0               0        0.0327404        -135.278         0.974592         119.736
                               0               0                0               0         0.974677         119.732        0.0327559        -135.195
                               0               0                0               0         0.217586         30.0063        0.0388228         39.7338
                               0               0                0               0        0.0388605         39.7873         0.217554         30.0167
75.135                         0               0                0               0        0.0358291        -137.373         0.974689         118.868
                               0               0                0               0         0.974766         118.863        0.0358246        -137.288
                               0               0                0               0         0.216533         29.1753        0.0391373         39.7685
                               0               0                0               0        0.0391774         39.8306         0.216501         29.1859
75.18                          0               0                0               0        0.0385719        -139.217         0.974802         117.929
                               0               0                0               0         0.974873         117.922        0.0385454        -139.131
                               0               0                0               0           0.2154         28.2695        0.0394499         39.5828
                               0               0                0               0        0.0394921         39.6542         0.215366         28.2801
75.225                         0               0                0               0         0.040953        -140.915         0.974941         116.918
                               0               0                0               0         0.975008          116.91        0.0409071        -140.831
                               0               0                0               0         0.214178         27.2897        0.0397613         39.1808
                               0               0                0               0        0.0398057         39.2595         0.214144         27.3005
75.27                          0               0                0               0        0.0429669        -142.532         0.975114         115.837
                               0               0                0               0         0.975177         115.828        0.0429074        -142.453
                               0               0                0               0          0.21286          26.237        0.0400693         38.5691
                               0               0                0               0         0.040116         38.6514         0.212826         26.2479
75.315                         0               0                0               0        0.0446162         -144.11         0.975329         114.687
                               0               0                0               0         0.975389         114.678        0.0445497         -144.04
                               0               0                0               0         0.211435         25.1128        0.0403695         37.7555
                               0               0                0               0        0.0404188         37.8373         0.211401         25.1238
75.36                          0               0                0               0        0.0459089        -145.674          0.97559         113.469
                               0               0                0               0         0.975647         113.461        0.0458422        -145.614
                               0               0                0               0         0.209892         23.9183        0.0406555         36.7495
                               0               0                0               0        0.0407074         36.8267         0.209858         23.9295
75.405                         0               0                0               0        0.0468574        -147.239         0.975903         112.187
                               0               0                0               0         0.975957         112.179        0.0467957         -147.19
                               0               0                0               0         0.208217         22.6553        0.0409197         35.5614
                               0               0                0               0        0.0409739         35.6306         0.208183         22.6665
75.45                          0               0                0               0        0.0474764        -148.813          0.97627          110.84
                               0               0                0               0         0.976319         110.833        0.0474235        -148.775
                               0               0                0               0         0.206395         21.3254        0.0411535         34.2024
                               0               0                0               0        0.0412096         34.2615         0.206362         21.3366
75.495                         0               0                0               0        0.0477827          -150.4          0.97669         109.432
                               0               0                0               0         0.976734         109.427        0.0477399        -150.372
                               0               0                0               0         0.204411         19.9306        0.0413479         32.6846
                               0               0                0               0        0.0414053         32.7326         0.204379          19.942
75.54                          0               0                0               0        0.0477935            -152         0.977163         107.965
                               0               0                0               0           0.9772         107.961        0.0477603         -151.98
                               0               0                0               0          0.20225         18.4733        0.0414942         31.0202
                               0               0                0               0        0.0415524         31.0576          0.20222         18.4847
75.585                         0               0                0               0        0.0475261        -153.611         0.977685         106.442
                               0               0                0               0         0.977716         106.439        0.0475001        -153.598
                               0               0                0               0         0.199899          16.956        0.0415844         29.2217
                               0               0                0               0        0.0416426         29.2502         0.199869         16.9675
75.63                          0               0                0               0        0.0469972         -155.23         0.978254         104.865
                               0               0                0               0         0.978278         104.864        0.0469747        -155.223
                               0               0                0               0         0.197342         15.3814         0.041611         27.3013
                               0               0                0               0        0.0416689         27.3235         0.197313          15.393
75.675                         0               0                0               0        0.0462226        -156.854         0.978863         103.238
                               0               0                0               0         0.978882         103.237         0.046199         -156.85
                               0               0                0               0         0.194567         13.7526        0.0415682         25.2709
                               0               0                0               0        0.0416254         25.2901         0.194538         13.7643
75.72                          0               0                0               0        0.0452167        -158.479         0.979508         101.564
                               0               0                0               0         0.979523         101.562        0.0451871        -158.475
                               0               0                0               0         0.191564         12.0728        0.0414512         23.1416
                               0               0                0               0        0.0415076         23.1611         0.191535         12.0847
75.765                         0               0                0               0        0.0439926        -160.102         0.980184         99.8443
                               0               0                0               0         0.980197         99.8424        0.0439525        -160.096
                               0               0                0               0         0.188323         10.3454        0.0412566         20.9234
                               0               0                0               0        0.0413123         20.9465         0.188294         10.3577
75.81                          0               0                0               0         0.042562        -161.717         0.980885         98.0835
                               0               0                0               0         0.980899         98.0807        0.0425074        -161.709
                               0               0                0               0         0.184838         8.57393        0.0409825         18.6252
                               0               0                0               0        0.0410376         18.6546         0.184808          8.5866
75.855                         0               0                0               0        0.0409351        -163.323         0.981609         96.2844
                               0               0                0               0         0.981627         96.2803        0.0408635        -163.311
                               0               0                0               0         0.181106         6.76184         0.040628         16.2544
                               0               0                0               0        0.0406827          16.292         0.181075           6.775
75.9                           0               0                0               0        0.0391211        -164.918         0.982356         94.4499
                               0               0                0               0         0.982379         94.4444        0.0390317        -164.903
                               0               0                0               0         0.177125         4.91245        0.0401936         13.8174
                               0               0                0               0         0.040248         13.8639         0.177093          4.9262
75.945                         0               0                0               0        0.0371286          -166.5         0.983126         92.5831
                               0               0                0               0         0.983156         92.5761        0.0370224        -166.483
                               0               0                0               0         0.172896         3.02889        0.0396804         11.3191
                               0               0                0               0        0.0397345          11.374         0.172863         3.04328
75.99                          0               0                0               0         0.034966         -168.07         0.983925         90.6868
                               0               0                0               0         0.983961         90.6787         0.034846        -168.052
                               0               0                0               0         0.168424         1.11391        0.0390903         8.76339
                               0               0                0               0        0.0391439         8.82513          0.16839         1.12898
76.035                         0               0                0               0        0.0326426        -169.629         0.984758         88.7641
                               0               0                0               0         0.984799         88.7554        0.0325135        -169.612
                               0               0                0               0         0.163714       -0.830111        0.0384254          6.1535
                               0               0                0               0        0.0384786         6.21931          0.16368       -0.814359
76.08                          0               0                0               0        0.0301688         -171.18         0.985636         86.8179
                               0               0                0               0         0.985679         86.8092        0.0300367        -171.168
                               0               0                0               0         0.158773        -2.80124        0.0376884         3.49218
                               0               0                0               0        0.0377409         3.55852         0.158739        -2.78488
76.125                         0               0                0               0        0.0275575        -172.728         0.986571         84.8511
                               0               0                0               0         0.986609         84.8432        0.0274292         -172.72
                               0               0                0               0          0.15361        -4.79798        0.0368816        0.782279
                               0               0                0               0        0.0369336        0.845193         0.153577        -4.78111
76.17                          0               0                0               0        0.0248245        -174.274         0.987575         82.8668
                               0               0                0               0         0.987602         82.8606        0.0247067        -174.271
                               0               0                0               0         0.148234        -6.81912        0.0360073        -1.97281
                               0               0                0               0         0.036059        -1.91722         0.148202        -6.80191
76.215                         0               0                0               0        0.0219891        -175.816         0.988658         80.8681
                               0               0                0               0         0.988666         80.8644        0.0218873        -175.815
                               0               0                0               0         0.142655        -8.86358        0.0350675        -4.76862
                               0               0                0               0        0.0351193        -4.72365         0.142626        -8.84621
76.26                          0               0                0               0        0.0190739         -177.34         0.989825         78.8585
                               0               0                0               0         0.989806         78.8578        0.0189914        -177.334
                               0               0                0               0         0.136883        -10.9301        0.0340636        -7.59912
                               0               0                0               0        0.0341161        -7.56692         0.136857        -10.9127
76.305                         0               0                0               0        0.0161042        -178.804         0.991074         76.8416
                               0               0                0               0          0.99102         76.8441        0.0160416        -178.783
                               0               0                0               0         0.130928        -13.0169        0.0329966        -10.4562
                               0               0                0               0        0.0330505        -10.4374         0.130905        -12.9996
76.35                          0               0                0               0        0.0131072         179.897         0.992386         74.8211
                               0               0                0               0         0.992295         74.8267        0.0130622         179.946
                               0               0                0               0           0.1248        -15.1209        0.0318671        -13.3294
                               0               0                0               0        0.0319229        -13.3227          0.12478        -15.1038
76.395                         0               0                0               0        0.0101115         179.018         0.993729         72.8009
                               0               0                0               0         0.993601         72.8089        0.0100788         179.118
                               0               0                0               0         0.118508        -17.2375        0.0306752         -16.205
                               0               0                0               0        0.0307334        -16.2074         0.118491        -17.2205
76.44                          0               0                0               0       0.00714762         179.273         0.995047         70.7847
                               0               0                0               0         0.994888         70.7942       0.00712062         179.461
                               0               0                0               0         0.112062        -19.3596        0.0294211        -19.0665
                               0               0                0               0        0.0294818        -19.0732         0.112047        -19.3425
76.485                         0               0                0               0       0.00426397          -176.7         0.996264          68.776
                               0               0                0               0         0.996086         68.7857       0.00423647         -176.31
                               0               0                0               0         0.105474        -21.4771        0.0281055        -21.8931
                               0               0                0               0        0.0281684        -21.8982          0.10546        -21.4594
76.53                          0               0                0               0       0.00170675        -149.978         0.997287         66.7776
                               0               0                0               0         0.997105         66.7864       0.00168696        -148.472
                               0               0                0               0        0.0987529        -23.5758        0.0267295          -24.66
                               0               0                0               0        0.0267943        -24.6569        0.0987394        -23.5571
76.575                         0               0                0               0       0.00209452        -56.6065         0.998008         64.7917
                               0               0                0               0         0.997839         64.7985       0.00214881        -55.7193
                               0               0                0               0        0.0919126        -25.6369        0.0252959        -27.3372
                               0               0                0               0         0.025362        -27.3193         0.091898        -25.6167
76.62                          0               0                0               0       0.00464452        -39.2238         0.998319         62.8196
                               0               0                0               0         0.998178         62.8237       0.00472196        -38.8302
                               0               0                0               0        0.0849675        -27.6359        0.0238089        -29.8887
                               0               0                0               0         0.023876        -29.8499        0.0849505        -27.6136
76.665                         0               0                0               0       0.00730841        -37.1883         0.998117         60.8621
                               0               0                0               0         0.998014         60.8632        0.0074053        -36.8167
                               0               0                0               0         0.077935        -29.5409        0.0222752        -32.2708
                               0               0                0               0        0.0223428        -32.2065        0.0779147         -29.516
76.71                          0               0                0               0       0.00994466        -38.4201         0.997319         58.9196
                               0               0                0               0         0.997255         58.9178         0.010059        -38.0304
                               0               0                0               0         0.070836        -31.3105        0.0207039        -34.4303
                               0               0                0               0        0.0207719        -34.3374         0.070812        -31.2826
76.755                         0               0                0               0        0.0125322        -40.8923         0.995864         56.9924
                               0               0                0               0         0.995835         56.9881        0.0126605        -40.4872
                               0               0                0               0        0.0636959        -32.8899        0.0191069        -36.3017
                               0               0                0               0        0.0191751        -36.1794        0.0636681        -32.8586
76.8                           0               0                0               0        0.0150647        -43.9795          0.99372         55.0809
                               0               0                0               0         0.993716         55.0747        0.0152023        -43.5702
                               0               0                0               0        0.0565451        -34.2032         0.017499        -37.8032
                               0               0                0               0        0.0175673        -37.6529         0.056514        -34.1682
76.845                         0               0                0               0        0.0175384        -47.4147         0.990887         53.1862
                               0               0                0               0         0.990894         53.1789          0.01768        -47.0136
                               0               0                0               0        0.0494199        -35.1406        0.0158979        -38.8312
                               0               0                0               0        0.0159662        -38.6572        0.0493863        -35.1013
76.89                          0               0                0               0         0.019949        -51.0577         0.987388         51.3096
                               0               0                0               0         0.987393         51.3018        0.0200894        -50.6761
                               0               0                0               0        0.0423641        -35.5318        0.0143248        -39.2535
                               0               0                0               0        0.0143928         -39.063         0.042329        -35.4874
76.935                         0               0                0               0         0.022291        -54.8235         0.983271         49.4527
                               0               0                0               0         0.983264         49.4451        0.0224253        -54.4702
                               0               0                0               0         0.035433         -35.093        0.0128044        -38.9009
                               0               0                0               0        0.0128714        -38.7035        0.0353976         -35.042
76.98                          0               0                0               0        0.0245582        -58.6552         0.978602         47.6176
                               0               0                0               0         0.978576         47.6106        0.0246822        -58.3362
                               0               0                0               0        0.0287044        -33.3087        0.0113659        -37.5583
                               0               0                0               0        0.0114311        -37.3668        0.0286699         -33.248
77.025                         0               0                0               0        0.0267437        -62.5124         0.973456          45.806
                               0               0                0               0          0.97341         45.7999        0.0268538        -62.2306
                               0               0                0               0        0.0223071        -29.1491        0.0100445        -34.9655
                               0               0                0               0        0.0101066        -34.7945         0.022275        -29.0714
77.07                          0               0                0               0        0.0288405        -66.3646         0.967919         44.0197
                               0               0                0               0         0.967852         44.0147        0.0289342        -66.1204
                               0               0                0               0         0.016508        -20.3664        0.0088821        -30.8406
                               0               0                0               0       0.00893964        -30.7054        0.0164807        -20.2557
77.115                         0               0                0               0        0.0308423        -70.1889         0.962075         42.2601
                               0               0                0               0         0.961991          42.256        0.0309181        -69.9802
                               0               0                0               0        0.0119749        -2.23182       0.00792781        -24.9639
                               0               0                0               0       0.00797934        -24.8767        0.0119577          -2.059
77.16                          0               0                0               0        0.0327436        -73.9674         0.956008         40.5279
                               0               0                0               0         0.955912         40.5247         0.032801        -73.7907
                               0               0                0               0        0.0101987         28.7931       0.00723249        -17.3511
                               0               0                0               0       0.00727699         -17.315        0.0102002         29.0083
77.205                         0               0                0               0        0.0345403        -77.6861         0.949798         38.8238