! TOUCHSTONE file generated by CST MICROWAVE STUDIO
! Date and time: Sun Jun 20 22:37:23 2021
! Project name: HIPS_d_sweep.cst
! Parameters = {fmax=120; fmin=75; b=0.46; d=20.6; a=0.63; phi=0; theta=0}
! Header version: 2018
! Port assignment regex: !\s*Touchstone port\s*([0-9]+)\s*=\s*(CST MWS port|CST DS port)\s*([0-9]+|Zmin|Zmax)\s*\(\"(.*)\"\)(\s*mode\s*([0-9]+))?.*
! Touchstone port assignment:
! Touchstone port 1 = CST MWS port Zmin ("") mode 1
! Touchstone port 2 = CST MWS port Zmin ("") mode 2
! Touchstone port 3 = CST MWS port Zmax ("") mode 1
! Touchstone port 4 = CST MWS port Zmax ("") mode 2
! S-Parameters are not renormalized. Unphysical impedance of 0 will be written to the file.
# GHz S MA R 0
75                             0               0                0               0         0.134591         46.9967          0.96548        -46.3016
                               0               0                0               0         0.965335        -46.2844         0.134479         46.9681
                               0               0                0               0         0.218806         44.9259        0.0454764         85.5825
                               0               0                0               0         0.045496         85.5862         0.218823         44.9282
75.045                         0               0                0               0          0.13808         46.2576          0.96529        -46.9792
                               0               0                0               0         0.965083        -46.9656         0.137951         46.2167
                               0               0                0               0          0.21838         44.3051        0.0462068         85.4318
                               0               0                0               0        0.0461034         85.6318         0.218354         44.3112
75.09                          0               0                0               0         0.141271         45.4742          0.96497        -47.7205
                               0               0                0               0         0.964744        -47.7078         0.141138          45.427
                               0               0                0               0         0.217909         43.6162        0.0469404         84.9997
                               0               0                0               0        0.0468423          85.212         0.217869         43.6231
75.135                         0               0                0               0         0.144147         44.6434         0.964576        -48.5264
                               0               0                0               0         0.964358        -48.5127         0.144019          44.595
                               0               0                0               0         0.217409         42.8593        0.0476707         84.3253
                               0               0                0               0        0.0476104         84.4766         0.217377         42.8656
75.18                          0               0                0               0         0.146698         43.7627         0.964157        -49.3973
                               0               0                0               0         0.963963        -49.3816          0.14658         43.7175
                               0               0                0               0         0.216893         42.0353        0.0483937         83.4389
                               0               0                0               0        0.0483733         83.5138         0.216882         42.0403
75.225                         0               0                0               0         0.148917         42.8301         0.963755        -50.3331
                               0               0                0               0          0.96359        -50.3154         0.148812         42.7912
                               0               0                0               0         0.216367         41.1455        0.0491062         82.3639
                               0               0                0               0        0.0491193         82.3738         0.216383         41.1488
75.27                          0               0                0               0         0.150803         41.8441         0.963407        -51.3334
                               0               0                0               0         0.963269        -51.3141         0.150711         41.8137
                               0               0                0               0         0.215836         40.1913        0.0498061          81.119
                               0               0                0               0        0.0498442         81.0854         0.215879         40.1931
75.315                         0               0                0               0         0.152359         40.8037         0.963139        -52.3973
                               0               0                0               0         0.963021        -52.3772         0.152279         40.7832
                               0               0                0               0         0.215296         39.1743        0.0504912         79.7191
                               0               0                0               0        0.0505467         79.6656         0.215363         39.1747
75.36                          0               0                0               0         0.153592         39.7087         0.962972        -53.5233
                               0               0                0               0         0.962861        -53.5039         0.153523         39.6985
                               0               0                0               0         0.214743         38.0957        0.0511599         78.1767
                               0               0                0               0        0.0512263         78.1244         0.214824         38.0953
75.405                         0               0                0               0         0.154513         38.5594         0.962916        -54.7099
                               0               0                0               0           0.9628        -54.6925         0.154451         38.5592
                               0               0                0               0         0.214167         36.9571        0.0518103         76.5019
                               0               0                0               0        0.0518825          76.468         0.214252         36.9565
75.45                          0               0                0               0         0.155135         37.3566         0.962977        -55.9552
                               0               0                0               0          0.96284        -55.9412         0.155078         37.3656
                               0               0                0               0         0.213554         35.7596        0.0524403         74.7039
                               0               0                0               0        0.0525146         74.7004         0.213633         35.7597
75.495                         0               0                0               0         0.155473         36.1016          0.96315        -57.2569
                               0               0                0               0         0.962979        -57.2474         0.155419         36.1184
                               0               0                0               0         0.212888         34.5047        0.0530479         72.7904
                               0               0                0               0        0.0531217         72.8248         0.212951         34.5066
75.54                          0               0                0               0         0.155544         34.7962         0.963426        -58.6128
                               0               0                0               0          0.96321        -58.6085         0.155491         34.8191
                               0               0                0               0          0.21215         33.1937        0.0536307         70.7687
                               0               0                0               0        0.0537026         70.8437         0.212189         33.1988
75.585                         0               0                0               0         0.155367         33.4423         0.963792        -60.0201
                               0               0                0               0         0.963522        -60.0214         0.155312         33.4695
                               0               0                0               0         0.211319         31.8286        0.0541861          68.646
                               0               0                0               0        0.0542556           68.76         0.211328         31.8382
75.63                          0               0                0               0         0.154958         32.0424          0.96423        -61.4761
                               0               0                0               0         0.963902        -61.4828         0.154902         32.0719
                               0               0                0               0         0.210372         30.4117        0.0547112         66.4287
                               0               0                0               0        0.0547787         66.5769         0.210352         30.4268
75.675                         0               0                0               0         0.154336         30.5988          0.96472        -62.9779
                               0               0                0               0         0.964336        -62.9893          0.15428         30.6289
                               0               0                0               0         0.209286         28.9456        0.0552031         64.1238
                               0               0                0               0        0.0552693         64.2986         0.209241          28.967
75.72                          0               0                0               0         0.153518         29.1141         0.965244        -64.5225
                               0               0                0               0         0.964809        -64.5374         0.153462          29.143
                               0               0                0               0         0.208042         27.4338        0.0556586         61.7381
                               0               0                0               0        0.0557247         61.9301         0.207978         27.4614
75.765                         0               0                0               0         0.152521          27.591         0.965782        -66.1067
                               0               0                0               0         0.965311        -66.1237         0.152466         27.6171
                               0               0                0               0         0.206621         25.8803        0.0560743         59.2786
                               0               0                0               0        0.0561414         59.4775         0.206548         25.9132
75.81                          0               0                0               0          0.15136         26.0318         0.966322        -67.7273
                               0               0                0               0         0.965829        -67.7446         0.151309          26.054
                               0               0                0               0         0.205008         24.2893        0.0564468         56.7528
                               0               0                0               0        0.0565158         56.9478         0.204937         24.3255
75.855                         0               0                0               0         0.150049          24.439         0.966854        -69.3812
                               0               0                0               0         0.966358        -69.3972         0.150004         24.4564
                               0               0                0               0         0.203192         22.6651        0.0567728         54.1681
                               0               0                0               0        0.0568439         54.3494         0.203133         22.7018
75.9                           0               0                0               0         0.148603         22.8148         0.967374        -71.0654
                               0               0                0               0         0.966895        -71.0784         0.148565         22.8269
                               0               0                0               0         0.201169         21.0119        0.0570489         51.5327
                               0               0                0               0        0.0571215         51.6915          0.20113         21.0458
75.945                         0               0                0               0         0.147031         21.1612         0.967888        -72.7767
                               0               0                0               0         0.967443        -72.7855         0.147002         21.1677
                               0               0                0               0         0.198936         19.3331        0.0572722         48.8545
                               0               0                0               0        0.0573448         48.9844         0.198922         19.3607
75.99                          0               0                0               0         0.145345         19.4797         0.968408        -74.5125
                               0               0                0               0         0.968008        -74.5164         0.145327         19.4811
                               0               0                0               0         0.196498         17.6312        0.0574399          46.142
                               0               0                0               0          0.05751          46.239         0.196508         17.6501
76.035                         0               0                0               0         0.143554         17.7717         0.968953          -76.27
                               0               0                0               0         0.968601        -76.2688         0.143548         17.7684
                               0               0                0               0         0.193859         15.9081        0.0575497         43.4036
                               0               0                0               0        0.0576141          43.467          0.19389         15.9167
76.08                          0               0                0               0         0.141667         16.0381         0.969547        -78.0469
                               0               0                0               0         0.969239         -78.041         0.141673         16.0309
                               0               0                0               0         0.191025         14.1645           0.0576         40.6476
                               0               0                0               0        0.0576553         40.6801         0.191072          14.163
76.125                         0               0                0               0         0.139692         14.2792          0.97022        -79.8406
                               0               0                0               0         0.969942        -79.8312          0.13971         14.2693
                               0               0                0               0         0.188003         12.4006        0.0575897         37.8823
                               0               0                0               0        0.0576328         37.8902         0.188059         12.3911
76.17                          0               0                0               0         0.137637         12.4951            0.971        -81.6487
                               0               0                0               0          0.97073        -81.6377         0.137665         12.4835
                               0               0                0               0         0.184801         10.6164        0.0575184         35.1156
                               0               0                0               0        0.0575478         35.1085         0.184859         10.6025
76.215                         0               0                0               0         0.135512         10.6854         0.971912        -83.4689
                               0               0                0               0         0.971626        -83.4583         0.135548         10.6731
                               0               0                0               0         0.181422         8.81251        0.0573867         32.3548
                               0               0                0               0        0.0574034         32.3448         0.181478         8.79875
76.26                          0               0                0               0         0.133328         8.84965          0.97297        -85.2983
                               0               0                0               0         0.972646        -85.2905         0.133369         8.83744
                               0               0                0               0         0.177872         6.99006        0.0571958         29.6065
                               0               0                0               0        0.0572049         29.6068         0.177921         6.98124
76.305                         0               0                0               0         0.131098         6.98773         0.974176         -87.134
                               0               0                0               0         0.973799         -87.131         0.131142         6.97583
                               0               0                0               0         0.174153         5.15166         0.056948         26.8761
                               0               0                0               0         0.056959         26.8983         0.174192         5.15188
76.35                          0               0                0               0         0.128839         5.10046          0.97551        -88.9726
                               0               0                0               0         0.975077        -88.9761         0.128883         5.08859
                               0               0                0               0         0.170266         3.30147        0.0566461         24.1673
                               0               0                0               0        0.0566729         24.2183         0.170295         3.31334
76.395                         0               0                0               0         0.126569         3.19068          0.97693        -90.8109
                               0               0                0               0         0.976449        -90.8214         0.126615         3.17812
                               0               0                0               0         0.166209         1.44533        0.0562932          21.482
                               0               0                0               0        0.0563514         21.5595         0.166229         1.46936
76.44                          0               0                0               0         0.124311         1.26438         0.978371        -92.6456
                               0               0                0               0          0.97786        -92.6623          0.12436          1.2504
                               0               0                0               0          0.16198       -0.409449        0.0558924         18.8194
                               0               0                0               0        0.0559934         18.9089         0.161993       -0.374944
76.485                         0               0                0               0         0.122086       -0.668104         0.979749        -94.4738
                               0               0                0               0         0.979228        -94.4948         0.122141       -0.683661
                               0               0                0               0         0.157576        -2.25431        0.0554452          16.175
                               0               0                0               0        0.0555871         16.2519         0.157585          -2.213
76.53                          0               0                0               0         0.119909        -2.59168         0.980965        -96.2933
                               0               0                0               0         0.980451        -96.3157         0.119977        -2.60774
                               0               0                0               0         0.152992        -4.07988          0.05495         13.5409
                               0               0                0               0        0.0551095         13.5799         0.153002        -4.03679
76.575                         0               0                0               0          0.11779        -4.48704         0.981919        -98.1024
                               0               0                0               0         0.981419        -98.1232         0.117876        -4.50104
                               0               0                0               0         0.148229        -5.87627        0.0543986         10.9059
                               0               0                0               0         0.054532         10.8998         0.148243        -5.83695
76.62                          0               0                0               0         0.115729        -6.33259         0.982512        -99.9002
                               0               0                0               0         0.982027        -99.9166         0.115835        -6.34084
                               0               0                0               0         0.143287        -7.63332        0.0537728         8.25994
                               0               0                0               0        0.0538325         8.23696         0.143307        -7.60299
76.665                         0               0                0               0         0.113715        -8.10721         0.982664        -101.686
                               0               0                0               0         0.982185        -101.696         0.113839        -8.10588
                               0               0                0               0         0.138171        -9.34064        0.0530423         5.60309
                               0               0                0               0        0.0530063          5.6285           0.1382        -9.32346
76.71                          0               0                0               0         0.111732        -9.79291         0.982311        -103.461
                               0               0                0               0          0.98183        -103.463         0.111868        -9.77919
                               0               0                0               0         0.132893        -10.9875        0.0521723          2.9598
                               0               0                0               0        0.0520682         3.10995         0.132929        -10.9862
76.755                         0               0                0               0         0.109763        -11.3764         0.981414        -105.223
                               0               0                0               0         0.980925        -105.218         0.109905        -11.3492
                               0               0                0               0         0.127468        -12.5629        0.0511433        0.387538
                               0               0                0               0        0.0510445        0.705488          0.12751        -12.5783
76.8                           0               0                0               0         0.107796        -12.8495         0.979956        -106.972
                               0               0                0               0         0.979457        -106.962         0.107938        -12.8096
                               0               0                0               0         0.121915        -14.0551        0.0499762        -2.03844
                               0               0                0               0        0.0499638        -1.57436         0.121959        -14.0864
76.845                         0               0                0               0         0.105828        -14.2079         0.977941        -108.709
                               0               0                0               0         0.977435        -108.694         0.105964        -14.1574
                               0               0                0               0         0.116258        -15.4515        0.0487316        -4.26372
                               0               0                0               0        0.0488502        -3.72951           0.1163        -15.4964
76.89                          0               0                0               0         0.103864        -15.4505         0.975389        -110.431
                               0               0                0               0         0.974884        -110.414          0.10399        -15.3923
                               0               0                0               0         0.110524        -16.7385         0.047479        -6.28199
                               0               0                0               0         0.047722        -5.76572         0.110561        -16.7935
76.935                         0               0                0               0         0.101917        -16.5784         0.972335        -112.138
                               0               0                0               0         0.971842         -112.12         0.102031        -16.5153
                               0               0                0               0         0.104742        -17.9013        0.0462645        -8.12562
                               0               0                0               0        0.0465916        -7.69107         0.104771         -17.962
76.98                          0               0                0               0         0.100007        -17.5941         0.968825        -113.828
                               0               0                0               0         0.968353        -113.812         0.100108        -17.5285
                               0               0                0               0         0.098941        -18.9236        0.0451046        -9.83798
                               0               0                0               0        0.0454671        -9.51391        0.0989601         -18.985
77.025                         0               0                0               0        0.0981553         -18.502         0.964911          -115.5
                               0               0                0               0         0.964468        -115.487        0.0982437        -18.4354
                               0               0                0               0        0.0931512        -19.7871        0.0439968        -11.4544
                               0               0                0               0        0.0443542        -11.2419        0.0931613        -19.8443
77.07                          0               0                0               0        0.0963867        -19.3081          0.96065        -117.152
                               0               0                0               0          0.96024        -117.144        0.0964626         -19.241
                               0               0                0               0        0.0874026        -20.4709        0.0429315        -12.9974
                               0               0                0               0        0.0432563        -12.8818        0.0874055        -20.5193
77.115                         0               0                0               0        0.0947235        -20.0208         0.956101        -118.784
                               0               0                0               0         0.955727        -118.781        0.0947877        -19.9527
                               0               0                0               0        0.0817241        -20.9516        0.0418988        -14.4789
                               0               0                0               0        0.0421761        -14.4395        0.0817227         -20.987
77.16                          0               0                0               0        0.0931856        -20.6506         0.951322        -120.394
                               0               0                0               0         0.950984        -120.397        0.0932392        -20.5799
                               0               0                0               0        0.0761439        -21.2013        0.0408912        -15.9044
                               0               0                0               0        0.0411154        -15.9198        0.0761418        -21.2207
77.205                         0               0                0               0        0.0917889        -21.2101         0.946372        -121.981