! TOUCHSTONE file generated by CST MICROWAVE STUDIO
! Date and time: Sun Jun 20 22:38:18 2021
! Project name: HIPS_d_sweep.cst
! Parameters = {fmax=120; fmin=75; b=0.46; d=25.65; a=0.63; phi=0; theta=0}
! Header version: 2018
! Port assignment regex: !\s*Touchstone port\s*([0-9]+)\s*=\s*(CST MWS port|CST DS port)\s*([0-9]+|Zmin|Zmax)\s*\(\"(.*)\"\)(\s*mode\s*([0-9]+))?.*
! Touchstone port assignment:
! Touchstone port 1 = CST MWS port Zmin ("") mode 1
! Touchstone port 2 = CST MWS port Zmin ("") mode 2
! Touchstone port 3 = CST MWS port Zmax ("") mode 1
! Touchstone port 4 = CST MWS port Zmax ("") mode 2
! S-Parameters are not renormalized. Unphysical impedance of 0 will be written to the file.
# GHz S MA R 0
75                             0               0                0               0         0.198492         11.0131         0.962556         101.596
                               0               0                0               0         0.962354         101.598         0.198601         11.0486
                               0               0                0               0         0.180729          10.899         0.038592        -63.1491
                               0               0                0               0        0.0385036        -63.1087          0.18071         10.8924
75.045                         0               0                0               0          0.19423         10.1825         0.963743         100.771
                               0               0                0               0         0.963574         100.771         0.194346         10.2147
                               0               0                0               0         0.179267         10.0941        0.0374679        -63.6278
                               0               0                0               0        0.0373772          -63.58          0.17925         10.0873
75.09                          0               0                0               0         0.190451         9.27507         0.964856         99.8575
                               0               0                0               0         0.964693         99.8574         0.190561         9.30879
                               0               0                0               0         0.177556         9.20211        0.0363771        -64.3712
                               0               0                0               0        0.0362841        -64.3174         0.177539         9.19523
75.135                         0               0                0               0         0.187145         8.29095         0.965903         98.8576
                               0               0                0               0          0.96573         98.8578         0.187242         8.32906
                               0               0                0               0         0.175591         8.22533        0.0353138        -65.3884
                               0               0                0               0        0.0352184        -65.3295         0.175573         8.21844
75.18                          0               0                0               0         0.184304         7.23039         0.966891         97.7721
                               0               0                0               0         0.966698         97.7727         0.184383         7.27443
                               0               0                0               0         0.173365         7.16596         0.034273        -66.6904
                               0               0                0               0        0.0341752        -66.6268         0.173347         7.15909
75.225                         0               0                0               0         0.181918         6.09385         0.967825         96.6022
                               0               0                0               0         0.967611         96.6032         0.181978          6.1443
                               0               0                0               0         0.170872         6.02631        0.0332506        -68.2904
                               0               0                0               0        0.0331501         -68.222         0.170853         6.01945
75.27                          0               0                0               0         0.179977         4.88195         0.968711         95.3494
                               0               0                0               0         0.968476         95.3507         0.180019         4.93853
                               0               0                0               0         0.168102         4.80881        0.0322433        -70.2043
                               0               0                0               0        0.0321399        -70.1304         0.168083          4.8019
75.315                         0               0                0               0         0.178474         3.59549         0.969551         94.0152
                               0               0                0               0         0.969301         94.0165         0.178499         3.65745
                               0               0                0               0         0.165049         3.51601        0.0312491        -72.4503
                               0               0                0               0        0.0311427          -72.37         0.165031         3.50898
75.36                          0               0                0               0         0.177397         2.23544         0.970348         92.6016
                               0               0                0               0          0.97009         92.6027         0.177409         2.30178
                               0               0                0               0         0.161704         2.15071        0.0302674        -75.0495
                               0               0                0               0        0.0301579        -74.9616         0.161686         2.14345
75.405                         0               0                0               0         0.176737        0.802926         0.971104         91.1104
                               0               0                0               0         0.970844         91.1111         0.176739        0.872626
                               0               0                0               0         0.158059        0.715954        0.0292995        -78.0261
                               0               0                0               0        0.0291867        -77.9293         0.158041        0.708354
75.45                          0               0                0               0         0.176482       -0.700771         0.971819         89.5438
                               0               0                0               0         0.971564          89.544         0.176478       -0.628645
                               0               0                0               0         0.154106       -0.784861        0.0283489        -81.4069
                               0               0                0               0        0.0282326        -81.3003         0.154089       -0.792927
75.495                         0               0                0               0         0.176622        -2.27425         0.972492         87.9043
                               0               0                0               0         0.972248         87.9038         0.176614        -2.20041
                               0               0                0               0         0.149839         -2.3479        0.0274216        -85.2213
                               0               0                0               0        0.0273014        -85.1042         0.149824        -2.35657
75.54                          0               0                0               0         0.177144        -3.91598         0.973122         86.1945
                               0               0                0               0         0.972892         86.1933         0.177134        -3.84088
                               0               0                0               0         0.145253        -3.96882        0.0265264        -89.5005
                               0               0                0               0        0.0264021        -89.3727         0.145238        -3.97823
75.585                         0               0                0               0         0.178033        -5.62432         0.973707         84.4172
                               0               0                0               0         0.973493         84.4154         0.178023        -5.54812
                               0               0                0               0         0.140344        -5.64262        0.0256761        -94.2752
                               0               0                0               0        0.0255471        -94.1377          0.14033        -5.65291
75.63                          0               0                0               0         0.179275        -7.39751         0.974245         82.5754
                               0               0                0               0         0.974045          82.573         0.179265         -7.3201
                               0               0                0               0         0.135111        -7.36354        0.0248869        -99.5732
                               0               0                0               0        0.0247527        -99.4281         0.135097        -7.37486
75.675                         0               0                0               0         0.180852        -9.23364         0.974731         80.6725
                               0               0                0               0         0.974543         80.6694         0.180842        -9.15473
                               0               0                0               0         0.129553        -9.12487        0.0241791        -105.415
                               0               0                0               0        0.0240392        -105.266         0.129539        -9.13739
75.72                          0               0                0               0         0.182748        -11.1307         0.975161         78.7117
                               0               0                0               0         0.974981         78.7082         0.182736        -11.0498
                               0               0                0               0         0.123673        -10.9187         0.023577        -111.807
                               0               0                0               0        0.0234309        -111.659          0.12366        -10.9327
75.765                         0               0                0               0         0.184941        -13.0864         0.975532         76.6968
                               0               0                0               0         0.975353         76.6929         0.184927        -13.0031
                               0               0                0               0         0.117478        -12.7358         0.023108        -118.736
                               0               0                0               0        0.0229552        -118.597         0.117465        -12.7513
75.81                          0               0                0               0          0.18741        -15.0985         0.975837         74.6315
                               0               0                0               0         0.975655         74.6274         0.187392        -15.0123
                               0               0                0               0         0.110977        -14.5648         0.022801         -126.16
                               0               0                0               0        0.0226414        -126.037         0.110964        -14.5823
75.855                         0               0                0               0         0.190133        -17.1643         0.976072         72.5199
                               0               0                0               0         0.975881         72.5155         0.190108        -17.0749
                               0               0                0               0         0.104181        -16.3921        0.0226843        -134.005
                               0               0                0               0        0.0225184        -133.906         0.104168         -16.412
75.9                           0               0                0               0         0.193084        -19.2809         0.976231          70.366
                               0               0                0               0         0.976027         70.3612         0.193052        -19.1882
                               0               0                0               0        0.0971056        -18.2006        0.0227828        -142.163
                               0               0                0               0        0.0226114        -142.096        0.0970922        -18.2235
75.945                         0               0                0               0         0.196239        -21.4453         0.976309          68.174
                               0               0                0               0         0.976089         68.1689         0.196198        -21.3493
                               0               0                0               0        0.0897699        -19.9686        0.0231149        -150.503
                               0               0                0               0        0.0229395        -150.473        0.0897563         -19.995
75.99                          0               0                0               0          0.19957         -23.654         0.976301         65.9481
                               0               0                0               0         0.976065         65.9427          0.19952        -23.5553
                               0               0                0               0        0.0821957        -21.6673        0.0236904        -158.883
                               0               0                0               0        0.0235126        -158.892        0.0821818        -21.6981
76.035                         0               0                0               0          0.20305        -25.9033         0.976201         63.6928
                               0               0                0               0         0.975951          63.687         0.202992        -25.8026
                               0               0                0               0        0.0744087         -23.257        0.0245093        -167.167
                               0               0                0               0        0.0243309        -167.213        0.0743941        -23.2933
76.08                          0               0                0               0          0.20665        -28.1894         0.976006         61.4123
                               0               0                0               0         0.975745         61.4061         0.206587        -28.0876
                               0               0                0               0        0.0664379         -24.681        0.0255624        -175.242
                               0               0                0               0        0.0253852         -175.32        0.0664222         -24.724
76.125                         0               0                0               0         0.210343        -30.5079         0.975712          59.111
                               0               0                0               0         0.975446         59.1044          0.21028        -30.4064
                               0               0                0               0        0.0583169        -25.8525        0.0268329         176.974
                               0               0                0               0        0.0266582         176.871        0.0582996        -25.9038
76.17                          0               0                0               0         0.214102        -32.8543         0.975318         56.7933
                               0               0                0               0         0.975052         56.7863         0.214044        -32.7544
                               0               0                0               0        0.0500853        -26.6306        0.0282988         169.531
                               0               0                0               0        0.0281276         169.412        0.0500655        -26.6923
76.215                         0               0                0               0           0.2179        -35.2241         0.974822         54.4634
                               0               0                0               0         0.974562         54.4561         0.217855        -35.1272
                               0               0                0               0        0.0417928        -26.7671        0.0299353          162.45
                               0               0                0               0        0.0297678         162.324        0.0417695        -26.8413
76.26                          0               0                0               0         0.221711        -37.6124         0.974226         52.1254
                               0               0                0               0         0.973976         52.1179         0.221687        -37.5198
                               0               0                0               0        0.0335105        -25.7767        0.0317164         155.732
                               0               0                0               0        0.0315524         155.607        0.0334825         -25.866
76.305                         0               0                0               0         0.225511        -40.0144         0.973532         49.7834
                               0               0                0               0         0.973293         49.7759         0.225518        -39.9272
                               0               0                0               0        0.0253637        -22.5775        0.0336162         149.361
                               0               0                0               0        0.0334551         149.246        0.0253292        -22.6835
76.35                          0               0                0               0         0.229278        -42.4251         0.972745         47.4414
                               0               0                0               0         0.972516         47.4339         0.229324         -42.344
                               0               0                0               0        0.0176502        -14.3082          0.03561         143.317
                               0               0                0               0        0.0354507         143.218        0.0176073         -14.423
76.395                         0               0                0               0          0.23299        -44.8398         0.971871         45.1031
                               0               0                0               0         0.971647         45.0957         0.233081         -44.765
                               0               0                0               0         0.011375         7.59951        0.0376739         137.576
                               0               0                0               0        0.0375156         137.497        0.0113242         7.55372
76.44                          0               0                0               0         0.236626        -47.2539         0.970919         42.7721
                               0               0                0               0         0.970694         42.7648         0.236764        -47.1851
                               0               0                0               0       0.00983229         52.5415         0.039785         132.112
                               0               0                0               0        0.0396269         132.054       0.00979879         52.7305
76.485                         0               0                0               0         0.240166        -49.6631         0.969899         40.4521
                               0               0                0               0         0.969665         40.4447         0.240346        -49.5995
                               0               0                0               0        0.0145326         85.0546        0.0419207         126.904
                               0               0                0               0         0.041763         126.865        0.0145308         85.2186
76.53                          0               0                0               0         0.243589        -52.0633         0.968819         38.1464
                               0               0                0               0         0.968574         38.1386         0.243798        -52.0041
                               0               0                0               0        0.0216531         97.6365        0.0440577         121.932
                               0               0                0               0        0.0439024         121.905         0.021667         97.7294
76.575                         0               0                0               0         0.246871        -54.4514         0.967687         35.8583
                               0               0                0               0         0.967437         35.8499         0.247085        -54.3959
                               0               0                0               0        0.0293882         102.556        0.0461721         117.177
                               0               0                0               0        0.0460233         117.152        0.0294088         102.612
76.62                          0               0                0               0         0.249987        -56.8252         0.966498         33.5909
                               0               0                0               0         0.966269         33.5819         0.250171        -56.7733
                               0               0                0               0        0.0372534           104.4        0.0482384         112.623
                               0               0                0               0        0.0481035         112.588        0.0372757         104.442
76.665                         0               0                0               0         0.252907        -59.1839         0.965232         31.3471
                               0               0                0               0         0.965068         31.3381         0.253019        -59.1365
                               0               0                0               0        0.0450754         104.771        0.0502315         108.249
                               0               0                0               0        0.0501205          108.19        0.0450956         104.813
76.71                          0               0                0               0         0.255597        -61.5291         0.963834         29.1295
                               0               0                0               0         0.963794         29.1216         0.255594        -61.4879
                               0               0                0               0        0.0527697         104.333        0.0521306         104.033
                               0               0                0               0        0.0520534          103.94        0.0527854         104.384
76.755                         0               0                0               0         0.258023        -63.8654         0.962199         26.9399
                               0               0                0               0         0.962323         26.9345         0.257878        -63.8315
                               0               0                0               0        0.0602877           103.4        0.0539259         99.9447
                               0               0                0               0        0.0538852         99.8123         0.060299         103.463
76.8                           0               0                0               0         0.260151        -66.2019         0.960139          24.779
                               0               0                0               0           0.9604         24.7765         0.259881        -66.1731
                               0               0                0               0        0.0676032         102.133        0.0556275         95.9424
                               0               0                0               0        0.0556085         95.7784        0.0676145         102.205
76.845                         0               0                0               0         0.261956        -68.5531         0.957368         22.6463
                               0               0                0               0         0.957595         22.6434         0.261669        -68.5218
                               0               0                0               0        0.0747116         100.618        0.0572648         91.9514
                               0               0                0               0        0.0572308         91.7952        0.0747311         100.681
76.89                          0               0                0               0         0.263422        -70.9409         0.953514         20.5409
                               0               0                0               0         0.953384         20.5313         0.263427        -70.9052
                               0               0                0               0        0.0816299         98.8883        0.0588324         87.8383
                               0               0                0               0        0.0587671          87.785        0.0816543         98.9094
76.935                         0               0                0               0         0.264525        -73.3969         0.948203         18.4642
                               0               0                0               0         0.947394          18.445         0.265422        -73.4523
                               0               0                0               0        0.0883728         96.9228        0.0601441          83.499
                               0               0                0               0        0.0601665         83.6104        0.0883399         96.8675
76.98                          0               0                0               0         0.265156         -75.961         0.941237         16.4227
                               0               0                0               0         0.939747         16.4004         0.266263        -76.4523
                               0               0                0               0         0.094816         94.6485        0.0609603         79.1419
                               0               0                0               0        0.0611461         79.2335        0.0945892         94.5613
77.025                         0               0                0               0         0.264965        -78.6484          0.93279         14.4273
                               0               0                0               0         0.931099         14.4111         0.263861        -79.2053
                               0               0                0               0         0.100468         92.1313        0.0614289         75.0556
                               0               0                0               0        0.0615461         75.0465         0.100123         92.1552
77.07                          0               0                0               0         0.263523         -81.342         0.923436         12.4856
                               0               0                0               0         0.922224          12.475         0.262118        -81.5166
                               0               0                0               0         0.105142         89.8151        0.0617969         71.2255
                               0               0                0               0        0.0617739         71.2573         0.104994          89.899
77.115                         0               0                0               0         0.261352        -83.8304         0.913901         10.5944
                               0               0                0               0         0.913611         10.5793         0.261089        -83.8297
                               0               0                0               0         0.109535         87.8449        0.0621325           67.55
                               0               0                0               0        0.0620459         67.6648         0.109543         87.8515
77.16                          0               0                0               0         0.259553        -86.1446          0.90475         8.74172
                               0               0                0               0         0.905423         8.71235         0.260152        -86.1838
                               0               0                0               0         0.113956          85.995        0.0624242         63.9784
                               0               0                0               0        0.0623244         64.1478         0.113959         85.9288
77.205                         0               0                0               0         0.258267        -88.4391         0.896253         6.91482