! TOUCHSTONE file generated by CST MICROWAVE STUDIO
! Date and time: Sun Jun 20 22:38:20 2021
! Project name: HIPS_d_sweep.cst
! Parameters = {fmax=120; fmin=75; b=0.46; d=25.85; a=0.63; phi=0; theta=0}
! Header version: 2018
! Port assignment regex: !\s*Touchstone port\s*([0-9]+)\s*=\s*(CST MWS port|CST DS port)\s*([0-9]+|Zmin|Zmax)\s*\(\"(.*)\"\)(\s*mode\s*([0-9]+))?.*
! Touchstone port assignment:
! Touchstone port 1 = CST MWS port Zmin ("") mode 1
! Touchstone port 2 = CST MWS port Zmin ("") mode 2
! Touchstone port 3 = CST MWS port Zmax ("") mode 1
! Touchstone port 4 = CST MWS port Zmax ("") mode 2
! S-Parameters are not renormalized. Unphysical impedance of 0 will be written to the file.
# GHz S MA R 0
75                             0               0                0               0         0.217168        -10.8241         0.968382         78.7821
                               0               0                0               0          0.96836         78.7935         0.217324        -10.8225
                               0               0                0               0         0.118336        -10.0726        0.0290355        -124.558
                               0               0                0               0        0.0289946        -124.551           0.1183        -10.0886
75.045                         0               0                0               0         0.211402        -11.6261         0.972808         77.9173
                               0               0                0               0         0.970343         77.9425         0.211198        -11.7299
                               0               0                0               0         0.115829        -11.0465         0.028302        -126.376
                               0               0                0               0        0.0282622         -126.24         0.115786        -11.0659
75.09                          0               0                0               0          0.20682        -12.5325         0.975988         76.9902
                               0               0                0               0         0.971948         77.0072         0.206466        -12.6863
                               0               0                0               0         0.113079        -12.0541        0.0275499         -128.46
                               0               0                0               0        0.0275076        -128.223         0.113032        -12.0767
75.135                         0               0                0               0         0.203208          -13.54         0.978059         75.9882
                               0               0                0               0         0.973229         75.9865         0.202833        -13.7095
                               0               0                0               0         0.110073        -13.0974        0.0267922        -130.845
                               0               0                0               0        0.0267455        -130.536         0.110023        -13.1227
75.18                          0               0                0               0         0.200403         -14.645         0.979196         74.9017
                               0               0                0               0         0.974237         74.8799         0.200085        -14.8095
                               0               0                0               0         0.106794        -14.1778        0.0260445        -133.567
                               0               0                0               0        0.0259935        -133.217         0.106742        -14.2054
75.225                         0               0                0               0         0.198282        -15.8438           0.9796         73.7243
                               0               0                0               0         0.975022         73.6873         0.198061        -15.9914
                               0               0                0               0          0.10323        -15.2962        0.0253253        -136.663
                               0               0                0               0        0.0252714          -136.3         0.103175        -15.3256
75.27                          0               0                0               0         0.196747        -17.1329         0.979474          72.453
                               0               0                0               0         0.975628         72.4095         0.196639        -17.2571
                               0               0                0               0        0.0993655        -16.4525        0.0246556        -140.165
                               0               0                0               0        0.0246016        -139.818        0.0993098        -16.4836
75.315                         0               0                0               0         0.195722        -18.5088         0.979009         71.0879
                               0               0                0               0         0.976094         71.0476         0.195728        -18.6071
                               0               0                0               0        0.0951886        -17.6457        0.0240592        -144.098
                               0               0                0               0        0.0240089        -143.791        0.0951322        -17.6781
75.36                          0               0                0               0         0.195144        -19.9683         0.978369         69.6315
                               0               0                0               0         0.976454         69.6032         0.195254        -20.0407
                               0               0                0               0        0.0906883        -18.8728        0.0235622        -148.477
                               0               0                0               0        0.0235199         -148.23        0.0906316        -18.9064
75.405                         0               0                0               0         0.194965        -21.5085         0.977689         68.0879
                               0               0                0               0         0.976735         68.0784         0.195164        -21.5564
                               0               0                0               0        0.0858555        -20.1285        0.0231924        -153.299
                               0               0                0               0        0.0231624        -153.125        0.0857986        -20.1632
75.45                          0               0                0               0         0.195145        -23.1266         0.977068         66.4626
                               0               0                0               0         0.976959         66.4757         0.195413        -23.1527
                               0               0                0               0        0.0806835         -21.404        0.0229783         -158.54
                               0               0                0               0        0.0229645        -158.446        0.0806266        -21.4399
75.495                         0               0                0               0         0.195651          -24.82         0.976572         64.7615
                               0               0                0               0         0.977141         64.7979         0.195968        -24.8276
                               0               0                0               0        0.0751689        -22.6856        0.0229475        -164.153
                               0               0                0               0        0.0229522        -164.137        0.0751119        -22.7229
75.54                          0               0                0               0         0.196457        -26.5863         0.976237         62.9908
                               0               0                0               0         0.977288         63.0482         0.196803        -26.5791
                               0               0                0               0        0.0693118         -23.952        0.0231243        -170.066
                               0               0                0               0        0.0231484        -170.119        0.0692545         -23.991
75.585                         0               0                0               0          0.19754         -28.423         0.976073         61.1565
                               0               0                0               0         0.977405         61.2301         0.197897        -28.4051
                               0               0                0               0         0.063117        -25.1703        0.0235286        -176.194
                               0               0                0               0        0.0235705          -176.3         0.063059        -25.2115
75.63                          0               0                0               0         0.198884        -30.3279          0.97607         59.2642
                               0               0                0               0         0.977489         59.3471         0.199235        -30.3031
                               0               0                0               0         0.056595        -26.2887         0.024173         177.558
                               0               0                0               0        0.0242289         177.418        0.0565359        -26.3328
75.675                         0               0                0               0         0.200473        -32.2984         0.976199         57.3191
                               0               0                0               0         0.977533         57.4031         0.200804        -32.2706
                               0               0                0               0        0.0497632        -27.2224        0.0250621          171.28
                               0               0                0               0        0.0251263         171.128        0.0497025        -27.2705
75.72                          0               0                0               0         0.202295        -34.3321         0.976418         55.3256
                               0               0                0               0         0.977527         55.4023         0.202595        -34.3048
                               0               0                0               0        0.0426486        -27.8246        0.0261918         165.046
                               0               0                0               0        0.0262574         164.903        0.0425856         -27.878
75.765                         0               0                0               0         0.204339         -36.426         0.976675         53.2877
                               0               0                0               0         0.977457         53.3486         0.204602        -36.4023
                               0               0                0               0        0.0352922        -27.8198        0.0275483          158.91
                               0               0                0               0        0.0276092         158.798        0.0352261          -27.88
75.81                          0               0                0               0         0.206597         -38.577         0.976913         51.2087
                               0               0                0               0         0.977307         51.2464         0.206819        -38.5595
                               0               0                0               0        0.0277614        -26.6259        0.0291095         152.909
                               0               0                0               0        0.0291614         152.844        0.0276913        -26.6937
75.855                         0               0                0               0         0.209061        -40.7816          0.97707         49.0914
                               0               0                0               0         0.977061         49.1001          0.20924        -40.7719
                               0               0                0               0          0.02019        -22.7857        0.0308449         147.062
                               0               0                0               0        0.0308873         147.056        0.0201146        -22.8563
75.9                           0               0                0               0         0.211722        -43.0356         0.977083         46.9378
                               0               0                0               0         0.976699          46.914         0.211861        -43.0347
                               0               0                0               0        0.0129568         -11.652        0.0327179         141.383
                               0               0                0               0         0.032755         141.437        0.0128755        -11.6781
75.945                         0               0                0               0         0.214571        -45.3343         0.976891         44.7493
                               0               0                0               0         0.976204         44.6926         0.214675        -45.3423
                               0               0                0               0       0.00778749         23.7618        0.0346892          135.88
                               0               0                0               0        0.0347283         135.987       0.00771842         24.1099
75.99                          0               0                0               0         0.217598        -47.6727         0.976438         42.5267
                               0               0                0               0         0.975559         42.4403         0.217672        -47.6885
                               0               0                0               0       0.00961416         77.9588        0.0367205         130.566
                               0               0                0               0        0.0367701         130.707       0.00961599          78.469
76.035                         0               0                0               0          0.22079        -50.0448         0.975682         40.2697
                               0               0                0               0         0.974748         40.1615          0.22084        -50.0667
                               0               0                0               0        0.0163317         99.1796        0.0387796          125.45
                               0               0                0               0        0.0388449         125.599        0.0163683         99.4582
76.08                          0               0                0               0          0.22413        -52.4444         0.974596         37.9774
                               0               0                0               0         0.973759         37.8606         0.224161          -52.47
                               0               0                0               0        0.0241644         105.968        0.0408434          120.54
                               0               0                0               0         0.040923         120.669        0.0242136         106.144
76.125                         0               0                0               0         0.227597        -54.8653         0.973185         35.6482
                               0               0                0               0         0.972581          35.542         0.227611        -54.8916
                               0               0                0               0        0.0322719         108.193        0.0428987         115.835
                               0               0                0               0        0.0429829         115.922         0.032327         108.322
76.17                          0               0                0               0         0.231162        -57.3007         0.971497         33.2804
                               0               0                0               0         0.971205         33.2098         0.231162        -57.3248
                               0               0                0               0        0.0404263         108.551        0.0449405         111.327
                               0               0                0               0        0.0450132         111.359        0.0404845         108.654
76.215                         0               0                0               0         0.234794        -59.7448         0.969634         30.8727
                               0               0                0               0         0.969627         30.8683         0.234779        -59.7639
                               0               0                0               0        0.0485304         107.989         0.046969         106.998
                               0               0                0               0        0.0470106         106.973        0.0485904         108.077
76.26                          0               0                0               0         0.238453         -62.192         0.967764         28.4268
                               0               0                0               0         0.967846         28.5216         0.238419         -62.204
                               0               0                0               0        0.0565306          106.92        0.0489855         102.821
                               0               0                0               0        0.0489781          102.75        0.0565921         106.999
76.305                         0               0                0               0         0.242096        -64.6378         0.966106         25.9497
                               0               0                0               0         0.965862         26.1735         0.242037        -64.6413
                               0               0                0               0         0.064394         105.551        0.0509895         98.7689
                               0               0                0               0        0.0509204           98.67        0.0644574         105.625
76.35                          0               0                0               0         0.245675         -67.079         0.964875         23.4564
                               0               0                0               0         0.963679          23.828         0.245587        -67.0736
                               0               0                0               0        0.0721011         103.994        0.0529772         94.8131
                               0               0                0               0        0.0528409         94.7056        0.0721674         104.065
76.395                         0               0                0               0          0.24914        -69.5137         0.964194         20.9703
                               0               0                0               0         0.961304         21.4887         0.249019        -69.4998
                               0               0                0               0         0.079641         102.315        0.0549404         90.9271
                               0               0                0               0        0.0547391         90.8294         0.079712         102.384
76.44                          0               0                0               0         0.252445        -71.9411         0.964002         18.5186
                               0               0                0               0         0.958743         19.1593         0.252287          -71.92
                               0               0                0               0        0.0870093         100.552         0.056867         87.0887
                               0               0                0               0        0.0566092         87.0153        0.0870869         100.619
76.485                         0               0                0               0         0.255543        -74.3618         0.964031         16.1249
                               0               0                0               0         0.956005         16.8434          0.25535         -74.335
                               0               0                0               0        0.0942042         98.7265        0.0587413         83.2802
                               0               0                0               0        0.0584402         83.2404        0.0942906          98.791
76.53                          0               0                0               0         0.258397        -76.7767         0.963885         13.8015
                               0               0                0               0         0.953097         14.5441         0.258172        -76.7464
                               0               0                0               0         0.101224         96.8492        0.0605451          79.489
                               0               0                0               0        0.0602164         79.4866         0.101321         96.9108
76.575                         0               0                0               0         0.260974        -79.1875         0.963182         11.5479
                               0               0                0               0         0.950025         12.2648         0.260723        -79.1555
                               0               0                0               0         0.108062         94.9252        0.0622589          75.707
                               0               0                0               0        0.0619188         75.7414         0.108171         94.9829
76.62                          0               0                0               0          0.26325        -81.5957         0.961663         9.35482
                               0               0                0               0         0.946794         10.0086         0.262982        -81.5637
                               0               0                0               0         0.114708          92.956        0.0638627         71.9306
                               0               0                0               0        0.0635262         71.9974         0.114829         93.0085
76.665                         0               0                0               0          0.26521        -84.0026          0.95922         7.20993
                               0               0                0               0         0.943403         7.77814         0.264934        -83.9719
                               0               0                0               0         0.121141         90.9421        0.0653372         68.1597
                               0               0                0               0        0.0650172         68.2523         0.121274         90.9885
76.71                          0               0                0               0         0.266846        -86.4087         0.955863         5.10232
                               0               0                0               0         0.939848         5.57613         0.266572        -86.3803
                               0               0                0               0         0.127334         88.8851         0.066665         64.3974
                               0               0                0               0        0.0663714         64.5078         0.127476         88.9246
76.755                         0               0                0               0         0.268158        -88.8141         0.951679         3.02419
                               0               0                0               0         0.936122          3.4048         0.267896        -88.7885
                               0               0                0               0         0.133253         86.7892        0.0678313         60.6491
                               0               0                0               0        0.0675705         60.7691           0.1334         86.8216
76.8                           0               0                0               0         0.269152        -91.2179          0.94678         0.97091
                               0               0                0               0         0.932212         1.26599         0.268909        -91.1953
                               0               0                0               0         0.138859         84.6616        0.0688246          56.922
                               0               0                0               0        0.0685999         57.0437         0.139008          84.687
76.845                         0               0                0               0         0.269839        -93.6187         0.941288        -1.05973
                               0               0                0               0         0.928102       -0.838892         0.269622        -93.5992
                               0               0                0               0         0.144115         82.5124         0.069637         53.2243
                               0               0                0               0         0.069449          53.341         0.144261         82.5316
76.89                          0               0                0               0         0.270233        -96.0144         0.935317        -3.06835
                               0               0                0               0         0.923773        -2.90899         0.270045        -95.9977
                               0               0                0               0         0.148989         80.3545         0.070265         49.5647
                               0               0                0               0        0.0701119         49.6709          0.14913         80.3686
76.935                         0               0                0               0         0.270351        -98.4025         0.928969        -5.05461
                               0               0                0               0         0.919208        -4.94401         0.270195        -98.3885
                               0               0                0               0         0.153459         78.2019        0.0707089         45.9519
                               0               0                0               0         0.070587         46.0436         0.153592         78.2123
76.98                          0               0                0               0         0.270214         -100.78         0.922334         -7.0178
                               0               0                0               0         0.914391        -6.94421         0.270089        -100.768
                               0               0                0               0         0.157513          76.069        0.0709728          42.394
                               0               0                0               0        0.0708774         42.4687         0.157638         76.0768
77.025                         0               0                0               0         0.269841        -103.145         0.915492        -8.95704
                               0               0                0               0         0.909314        -8.91033         0.269747        -103.135
                               0               0                0               0         0.161153         73.9689        0.0710641         38.8982
                               0               0                0               0        0.0709902         38.9548         0.161268         73.9752
77.07                          0               0                0               0         0.269254        -105.493         0.908514        -10.8716
                               0               0                0               0         0.903975        -10.8435         0.269189        -105.484
                               0               0                0               0          0.16439         71.9127         0.070993         35.4707
                               0               0                0               0        0.0709353         35.5093         0.164498         71.9185
77.115                         0               0                0               0         0.268476        -107.821         0.901461        -12.7608
                               0               0                0               0         0.898381        -12.7451         0.268435        -107.814
                               0               0                0               0         0.167247         69.9092        0.0707716         32.1163
                               0               0                0               0        0.0707255         32.1379         0.167347         69.9149
77.16                          0               0                0               0         0.267527        -110.127         0.894389        -14.6243
                               0               0                0               0         0.892554        -14.6167         0.267507        -110.122
                               0               0                0               0          0.16975         67.9643        0.0704135         28.8387
                               0               0                0               0         0.070375          28.845         0.169846         67.9704
77.205                         0               0                0               0         0.266429        -112.409         0.887348         -16.462