! TOUCHSTONE file generated by CST MICROWAVE STUDIO
! Date and time: Sun Jun 20 22:37:59 2021
! Project name: HIPS_d_sweep.cst
! Parameters = {fmax=120; fmin=75; b=0.46; d=24; a=0.63; phi=0; theta=0}
! Header version: 2018
! Port assignment regex: !\s*Touchstone port\s*([0-9]+)\s*=\s*(CST MWS port|CST DS port)\s*([0-9]+|Zmin|Zmax)\s*\(\"(.*)\"\)(\s*mode\s*([0-9]+))?.*
! Touchstone port assignment:
! Touchstone port 1 = CST MWS port Zmin ("") mode 1
! Touchstone port 2 = CST MWS port Zmin ("") mode 2
! Touchstone port 3 = CST MWS port Zmax ("") mode 1
! Touchstone port 4 = CST MWS port Zmax ("") mode 2
! S-Parameters are not renormalized. Unphysical impedance of 0 will be written to the file.
# GHz S MA R 0
75                             0               0                0               0        0.0880946        -165.033         0.975105        -71.2773
                               0               0                0               0         0.974959        -71.2826        0.0879197        -164.944
                               0               0                0               0         0.201651         18.0481        0.0327316         -14.539
                               0               0                0               0        0.0327207        -14.5227         0.201686         18.0419
75.045                         0               0                0               0        0.0846208        -166.273         0.975794         -72.054
                               0               0                0               0          0.97571        -72.0597        0.0834895          -165.4
                               0               0                0               0         0.200381          17.304        0.0322997        -13.7413
                               0               0                0               0        0.0322428        -13.7221         0.200419         17.2962
75.09                          0               0                0               0        0.0811921        -167.379         0.976432          -72.91
                               0               0                0               0         0.976379        -72.9158        0.0797064        -166.213
                               0               0                0               0         0.198926         16.4764         0.031879        -13.1948
                               0               0                0               0         0.031802        -13.1783         0.198965         16.4679
75.135                         0               0                0               0        0.0779177        -168.407         0.977036        -73.8451
                               0               0                0               0          0.97699        -73.8507        0.0764769        -167.282
                               0               0                0               0         0.197284          15.566         0.031464        -12.8928
                               0               0                0               0         0.031383        -12.8799         0.197322         15.5575
75.18                          0               0                0               0        0.0748951        -169.417         0.977618        -74.8587
                               0               0                0               0         0.977564        -74.8641         0.073723        -168.522
                               0               0                0               0         0.195452          14.574        0.0310486        -12.8298
                               0               0                0               0        0.0309729        -12.8177         0.195488         14.5657
75.225                         0               0                0               0        0.0722075        -170.456          0.97819        -75.9498
                               0               0                0               0          0.97812        -75.9552        0.0713869        -169.863
                               0               0                0               0         0.193425         13.5014        0.0306266         -13.001
                               0               0                0               0        0.0305603        -12.9853         0.193459         13.4937
75.27                          0               0                0               0        0.0699198         -171.56         0.978763        -77.1175
                               0               0                0               0         0.978673        -77.1229        0.0694309        -171.249
                               0               0                0               0         0.191197         12.3498         0.030191        -13.4025
                               0               0                0               0        0.0301351         -13.378         0.191228         12.3427
75.315                         0               0                0               0        0.0680755        -172.741         0.979344        -78.3605
                               0               0                0               0         0.979235        -78.3659        0.0678351        -172.637
                               0               0                0               0         0.188757         11.1207        0.0297347        -14.0315
                               0               0                0               0        0.0296883        -13.9934         0.188786         11.1142
75.36                          0               0                0               0        0.0666945        -173.998          0.97994         -79.677
                               0               0                0               0         0.979816        -79.6826        0.0665939        -174.003
                               0               0                0               0         0.186097         9.81594        0.0292504        -14.8856
                               0               0                0               0        0.0292112        -14.8305         0.186125         9.80991
75.405                         0               0                0               0        0.0657735        -175.313         0.980552        -81.0654
                               0               0                0               0         0.980422        -81.0712        0.0657094        -175.337
                               0               0                0               0         0.183206          8.4375        0.0287305        -15.9635
                               0               0                0               0        0.0286959        -15.8899         0.183233         8.43166
75.45                          0               0                0               0        0.0652903        -176.665         0.981184        -82.5235
                               0               0                0               0         0.981057        -82.5297        0.0651855        -176.647
                               0               0                0               0         0.180072         6.98761        0.0281674        -17.2647
                               0               0                0               0        0.0281345        -17.1739         0.180099         6.98162
75.495                         0               0                0               0        0.0652083        -178.035         0.981835         -84.049
                               0               0                0               0         0.981719        -84.0555        0.0650224        -177.952
                               0               0                0               0         0.176685         5.46876        0.0275538        -18.7895
                               0               0                0               0        0.0275197        -18.6855         0.176712         5.46219
75.54                          0               0                0               0        0.0654831        -179.413         0.982502        -85.6395
                               0               0                0               0         0.982408        -85.6464        0.0652135        -179.277
                               0               0                0               0         0.173034         3.88371        0.0268825        -20.5389
                               0               0                0               0        0.0268446        -20.4291         0.173062         3.87608
75.585                         0               0                0               0        0.0660684         179.206         0.983181        -87.2923
                               0               0                0               0         0.983119        -87.2995        0.0657452         179.352
                               0               0                0               0          0.16911         2.23553        0.0261466        -22.5156
                               0               0                0               0        0.0261026        -22.4102         0.169139         2.22631
75.63                          0               0                0               0        0.0669199         177.813         0.983868        -89.0045
                               0               0                0               0         0.983844         -89.012        0.0665991         177.918
                               0               0                0               0         0.164904        0.527588        0.0253403        -24.7233
                               0               0                0               0        0.0252881        -24.6354         0.164935        0.516263
75.675                         0               0                0               0        0.0679993         176.395         0.984555        -90.7731
                               0               0                0               0         0.984575        -90.7809        0.0677542         176.408
                               0               0                0               0          0.16041         -1.2364        0.0244585        -27.1682
                               0               0                0               0        0.0243962        -27.1131         0.160443        -1.25037
75.72                          0               0                0               0        0.0692766         174.931         0.985237        -92.5949
                               0               0                0               0         0.985304        -92.6029        0.0691896         174.819
                               0               0                0               0         0.155623        -3.05243        0.0234973        -29.8593
                               0               0                0               0        0.0234233        -29.8537         0.155658        -3.06953
75.765                         0               0                0               0        0.0707323         173.399         0.985905        -94.4666
                               0               0                0               0         0.986021        -94.4748        0.0708863         173.154
                               0               0                0               0         0.150543        -4.91617        0.0224545        -32.8103
                               0               0                0               0        0.0223675        -32.8714         0.150578        -4.93683
75.81                          0               0                0               0        0.0723603         171.775         0.986554        -96.3848
                               0               0                0               0         0.986716        -96.3932        0.0728274          171.42
                               0               0                0               0         0.145168        -6.82304        0.0213297         -36.041
                               0               0                0               0        0.0212287        -36.1855         0.145205        -6.84761
75.855                         0               0                0               0        0.0741696         170.041         0.987175         -98.346
                               0               0                0               0         0.987379        -98.3547        0.0749986         169.627
                               0               0                0               0         0.139504        -8.76821        0.0201243        -39.5805
                               0               0                0               0        0.0200094        -39.8234         0.139541         -8.7969
75.9                           0               0                0               0        0.0761852         168.186         0.987765        -100.347
                               0               0                0               0         0.988003        -100.356        0.0773868         167.788
                               0               0                0               0         0.133557        -10.7466        0.0188425        -43.4716
                               0               0                0               0        0.0187145        -43.8254         0.133592        -10.7796
75.945                         0               0                0               0        0.0784455         166.213         0.988318        -102.383
                               0               0                0               0         0.988582        -102.393        0.0799796         165.912
                               0               0                0               0         0.127334        -12.7532         0.017491         -47.777
                               0               0                0               0        0.0173522        -48.2506          0.12737        -12.7903
75.99                          0               0                0               0        0.0809941         164.144         0.988832        -104.452
                               0               0                0               0         0.989111        -104.462        0.0827643          164.01
                               0               0                0               0          0.12085        -14.7825        0.0160801         -52.589
                               0               0                0               0        0.0159341        -53.1871         0.120884        -14.8235
76.035                         0               0                0               0         0.083865         162.017         0.989306         -106.55
                               0               0                0               0         0.989589         -106.56         0.085727         162.088
                               0               0                0               0         0.114116        -16.8292        0.0146246        -58.0445
                               0               0                0               0        0.0144764        -58.7673         0.114149        -16.8738
76.08                          0               0                0               0        0.0870656         159.882         0.989742        -108.673
                               0               0                0               0         0.990017        -108.683        0.0888518         160.154
                               0               0                0               0         0.107151        -18.8876        0.0131453        -64.3477
                               0               0                0               0        0.0130015        -65.1902         0.107182        -18.9354
76.125                         0               0                0               0        0.0905658         157.784         0.990143        -110.817
                               0               0                0               0         0.990398        -110.828        0.0921209         158.208
                               0               0                0               0        0.0999706        -20.9519        0.0116728        -71.8039
                               0               0                0               0        0.0115407        -72.7544         0.100001        -21.0022
76.17                          0               0                0               0        0.0943005         155.747         0.990512        -112.979
                               0               0                0               0         0.990738         -112.99        0.0955142         156.253
                               0               0                0               0        0.0925953        -23.0158        0.0102531        -80.8613
                               0               0                0               0        0.0101399        -81.8979        0.0926258         -23.068
76.215                         0               0                0               0        0.0981851         153.776         0.990854        -115.155
                               0               0                0               0         0.991043        -115.167        0.0990093         154.286
                               0               0                0               0        0.0850451        -25.0717       0.00895718        -92.1361
                               0               0                0               0       0.00886865        -93.2186        0.0850759        -25.1252
76.26                          0               0                0               0         0.102135         151.853         0.991173        -117.341
                               0               0                0               0         0.991322        -117.354         0.102582         152.305
                               0               0                0               0        0.0773411        -27.1104       0.00789352         -106.31
                               0               0                0               0       0.00783182        -107.366        0.0773727        -27.1648
76.305                         0               0                0               0         0.106079         149.949          0.99147        -119.534
                               0               0                0               0         0.991577        -119.548         0.106206         150.304
                               0               0                0               0        0.0695051        -29.1194       0.00721131        -123.643
                               0               0                0               0       0.00717223        -124.566        0.0695379        -29.1742
76.35                          0               0                0               0         0.109968         148.035          0.99174        -121.731
                               0               0                0               0         0.991811        -121.745         0.109856          148.28
                               0               0                0               0        0.0615595        -31.0799       0.00706121        -143.075
                               0               0                0               0       0.00703319         -143.77        0.0615935        -31.1351
76.395                         0               0                0               0         0.113767         146.086         0.991973        -123.926
                               0               0                0               0         0.992014        -123.941         0.113502         146.226
                               0               0                0               0        0.0535276        -32.9618       0.00750379        -162.124
                               0               0                0               0       0.00747334        -162.586        0.0535623        -33.0177
76.44                          0               0                0               0         0.117455         144.082         0.992147        -126.118
                               0               0                0               0         0.992168        -126.132         0.117117         144.137
                               0               0                0               0        0.0454337        -34.7126       0.00846372        -178.637
                               0               0                0               0       0.00842392        -178.933        0.0454683        -34.7702
76.485                         0               0                0               0         0.121018         142.011         0.992225        -128.301
                               0               0                0               0         0.992239        -128.315         0.120673         142.008
                               0               0                0               0        0.0373043        -36.2324       0.00979714         167.943
                               0               0                0               0       0.00975057         167.751        0.0373374        -36.2935
76.53                          0               0                0               0         0.124447         139.869         0.992157        -130.472
                               0               0                0               0         0.992176        -130.486         0.124142         139.835
                               0               0                0               0        0.0291697        -37.3076        0.0113719         157.133
                               0               0                0               0        0.0113279          157.02        0.0291996        -37.3761
76.575                         0               0                0               0         0.127731         137.653         0.991873        -132.629
                               0               0                0               0          0.99191        -132.641         0.127496         137.616
                               0               0                0               0        0.0210703        -37.3969        0.0130925         148.237
                               0               0                0               0        0.0130631         148.204        0.0210949        -37.4809
76.62                          0               0                0               0         0.130862         135.366          0.99129        -134.768
                               0               0                0               0         0.991352        -134.779         0.130709          135.35
                               0               0                0               0        0.0130829        -34.6516        0.0148934         140.683
                               0               0                0               0          0.01489         140.742        0.0130996        -34.7738
76.665                         0               0                0               0          0.13383         133.013         0.990314        -136.887
                               0               0                0               0         0.990404        -136.896         0.133754         133.035
                               0               0                0               0       0.00557641        -17.2187        0.0167288         134.065
                               0               0                0               0        0.0167587         134.226       0.00557854        -17.4799
76.71                          0               0                0               0         0.136624         130.602         0.988844        -138.984
                               0               0                0               0         0.988961        -138.992         0.136606         130.675
                               0               0                0               0       0.00454127         83.8932        0.0185645         128.105
                               0               0                0               0        0.0186282         128.376       0.00452341         83.9806
76.755                         0               0                0               0         0.139234         128.142         0.986787        -141.058
                               0               0                0               0         0.986926        -141.065         0.139242         128.271
                               0               0                0               0        0.0116139         108.698        0.0203739         122.616
                               0               0                0               0        0.0204638         122.989        0.0116085         108.765
76.8                           0               0                0               0         0.141648         125.645         0.984065        -143.109
                               0               0                0               0         0.984218        -143.115         0.141639         125.826
                               0               0                0               0        0.0191665         112.249        0.0221358         117.471
                               0               0                0               0        0.0222372         117.922        0.0191687         112.286
76.845                         0               0                0               0         0.143854         123.126         0.980626        -145.134
                               0               0                0               0         0.980784        -145.141         0.143779         123.344
                               0               0                0               0        0.0266459         112.264        0.0238331         112.585
                               0               0                0               0         0.023928         113.074        0.0266526         112.286
76.89                          0               0                0               0         0.145829         120.599         0.976451        -147.134
                               0               0                0               0         0.976605        -147.141         0.145645         120.829
                               0               0                0               0        0.0339624         111.106        0.0254523           107.9
                               0               0                0               0         0.025525         108.376        0.0339711         111.119
76.935                         0               0                0               0         0.147533         118.082         0.971557        -149.108
                               0               0                0               0         0.971702        -149.115         0.147227         118.283
                               0               0                0               0        0.0410758         109.434        0.0269837          103.38
                               0               0                0               0        0.0270253         103.791        0.0410842         109.441
76.98                          0               0                0               0         0.148895         115.582         0.965996        -151.053
                               0               0                0               0          0.96613         -151.06         0.148522         115.709
                               0               0                0               0        0.0479593         107.508        0.0284206         99.0031
                               0               0                0               0        0.0284311         99.3081        0.0479655         107.512
77.025                         0               0                0               0         0.149834         113.079         0.959853        -152.969
                               0               0                0               0         0.959977        -152.976         0.149539         113.107
                               0               0                0               0        0.0545932         105.459         0.029759         94.7573
                               0               0                0               0        0.0297462         94.9347         0.054596         105.462
77.07                          0               0                0               0         0.150354          110.52         0.953231        -154.853
                               0               0                0               0         0.953352        -154.859         0.150299          110.48
                               0               0                0               0        0.0609634          103.36        0.0309975         90.6385
                               0               0                0               0        0.0309726         90.6858        0.0609623         103.363
77.115                         0               0                0               0         0.150624         107.871         0.946251        -156.705
                               0               0                0               0         0.946376         -156.71         0.150835         107.834
                               0               0                0               0        0.0670611         101.257        0.0321363         86.6467
                               0               0                0               0         0.032111         86.5775        0.0670565         101.262
77.16                          0               0                0               0         0.150831         105.168         0.939033        -158.525
                               0               0                0               0         0.939171        -158.528         0.151186         105.178
                               0               0                0               0        0.0728829         99.1813        0.0331773         82.7845
                               0               0                0               0        0.0331604         82.6224        0.0728759          99.187
77.205                         0               0                0               0         0.151021         102.473         0.931695        -160.311