! TOUCHSTONE file generated by CST MICROWAVE STUDIO
! Date and time: Sun Jun 20 22:36:55 2021
! Project name: HIPS_d_sweep.cst
! Parameters = {fmax=120; fmin=75; b=0.46; d=17.25; a=0.63; phi=0; theta=0}
! Header version: 2018
! Port assignment regex: !\s*Touchstone port\s*([0-9]+)\s*=\s*(CST MWS port|CST DS port)\s*([0-9]+|Zmin|Zmax)\s*\(\"(.*)\"\)(\s*mode\s*([0-9]+))?.*
! Touchstone port assignment:
! Touchstone port 1 = CST MWS port Zmin ("") mode 1
! Touchstone port 2 = CST MWS port Zmin ("") mode 2
! Touchstone port 3 = CST MWS port Zmax ("") mode 1
! Touchstone port 4 = CST MWS port Zmax ("") mode 2
! S-Parameters are not renormalized. Unphysical impedance of 0 will be written to the file.
# GHz S MA R 0
75                             0               0                0               0         0.352694         63.4677         0.916443        -26.4882
                               0               0                0               0         0.916389        -26.4909         0.352693         63.4843
                               0               0                0               0         0.176424         63.4304        0.0681054         154.103
                               0               0                0               0        0.0681714         154.086         0.176445         63.4169
75.045                         0               0                0               0          0.35538         62.8793         0.915599        -27.0783
                               0               0                0               0          0.91565        -27.0846         0.355356         62.9062
                               0               0                0               0         0.176389         62.9378        0.0687313         153.063
                               0               0                0               0        0.0687905         153.027         0.176414         62.9311
75.09                          0               0                0               0         0.357787          62.248         0.914743        -27.7223
                               0               0                0               0         0.914861        -27.7308         0.357748         62.2811
                               0               0                0               0         0.176466         62.3951        0.0693274         151.879
                               0               0                0               0        0.0693824         151.832         0.176493         62.3925
75.135                         0               0                0               0         0.359909          61.572         0.913896        -28.4209
                               0               0                0               0         0.914048        -28.4304         0.359862         61.6079
                               0               0                0               0         0.176655          61.805        0.0698998         150.554
                               0               0                0               0        0.0699526         150.501         0.176682         61.8041
75.18                          0               0                0               0         0.361744         60.8499         0.913078        -29.1745
                               0               0                0               0         0.913237        -29.1841         0.361694         60.8859
                               0               0                0               0         0.176951         61.1694        0.0704549         149.088
                               0               0                0               0        0.0705065         149.034         0.176977         61.1687
75.225                         0               0                0               0         0.363291         60.0804         0.912307        -29.9831
                               0               0                0               0          0.91245         -29.992         0.363244         60.1145
                               0               0                0               0          0.17735         60.4903        0.0709984         147.485
                               0               0                0               0        0.0710497         147.434         0.177376         60.4884
75.27                          0               0                0               0         0.364555         59.2629         0.911598        -30.8462
                               0               0                0               0         0.911709        -30.8541         0.364515         59.2937
                               0               0                0               0         0.177846         59.7694         0.071536         145.748
                               0               0                0               0        0.0715873         145.702         0.177871         59.7655
75.315                         0               0                0               0         0.365541          58.397         0.910964        -31.7633
                               0               0                0               0         0.911032        -31.7697         0.365511         58.4238
                               0               0                0               0         0.178431          59.008        0.0720728         143.882
                               0               0                0               0        0.0721241         143.844         0.178455         59.0016
75.36                          0               0                0               0         0.366257          57.483         0.910415        -32.7332
                               0               0                0               0         0.910434        -32.7381         0.366238         57.5054
                               0               0                0               0         0.179096         58.2071        0.0726132         141.894
                               0               0                0               0        0.0726642         141.863          0.17912         58.1981
75.405                         0               0                0               0         0.366714         56.5213         0.909958        -33.7548
                               0               0                0               0         0.909927        -33.7581         0.366707         56.5394
                               0               0                0               0         0.179833         57.3679        0.0731611         139.788
                               0               0                0               0        0.0732115         139.765         0.179857         57.3562
75.45                          0               0                0               0         0.366924         55.5129         0.909597        -34.8263
                               0               0                0               0         0.909519        -34.8283         0.366928         55.5272
                               0               0                0               0         0.180631         56.4909        0.0737195         137.573
                               0               0                0               0        0.0737687         137.557         0.180654          56.477
75.495                         0               0                0               0           0.3669         54.4593         0.909335         -35.946
                               0               0                0               0         0.909216        -35.9467         0.366914         54.4704
                               0               0                0               0         0.181479         55.5769        0.0742907         135.256
                               0               0                0               0        0.0743383         135.246           0.1815         55.5612
75.54                          0               0                0               0         0.366656          53.362          0.90917        -37.1117
                               0               0                0               0         0.909019        -37.1115         0.366678         53.3708
                               0               0                0               0         0.182364         54.6266        0.0748763         132.845
                               0               0                0               0        0.0749216         132.839         0.182385         54.6096
75.585                         0               0                0               0         0.366208         52.2233         0.909099        -38.3212
                               0               0                0               0         0.908927        -38.3203         0.366235         52.2305
                               0               0                0               0         0.183274         53.6407        0.0754771         130.347
                               0               0                0               0        0.0755194         130.345         0.183294         53.6229
75.63                          0               0                0               0         0.365571         51.0453         0.909118        -39.5719
                               0               0                0               0         0.908935        -39.5708           0.3656         51.0518
                               0               0                0               0         0.184196         52.6199        0.0760931         127.772
                               0               0                0               0        0.0761319         127.771         0.184216         52.6019
75.675                         0               0                0               0          0.36476         49.8306         0.909221        -40.8614
                               0               0                0               0         0.909038        -40.8604         0.364789         49.8373
                               0               0                0               0         0.185117         51.5651        0.0767238         125.129
                               0               0                0               0        0.0767584         125.127         0.185137         51.5474
75.72                          0               0                0               0         0.363792         48.5819         0.909398        -42.1869
                               0               0                0               0         0.909226        -42.1863         0.363818         48.5893
                               0               0                0               0         0.186024         50.4774        0.0773681         122.425
                               0               0                0               0        0.0773978         122.421         0.186045         50.4605
75.765                         0               0                0               0         0.362681         47.3019         0.909643        -43.5456
                               0               0                0               0         0.909491        -43.5457         0.362702         47.3107
                               0               0                0               0         0.186902         49.3579        0.0780244         119.669
                               0               0                0               0        0.0780485         119.661         0.186924         49.3421
75.81                          0               0                0               0         0.361443         45.9935         0.909946        -44.9347
                               0               0                0               0          0.90982        -44.9357         0.361458         46.0039
                               0               0                0               0          0.18774         48.2081        0.0786905          116.87
                               0               0                0               0        0.0787084         116.858         0.187763         48.1937
75.855                         0               0                0               0         0.360092         44.6594           0.9103        -46.3513
                               0               0                0               0         0.910203        -46.3533         0.360101         44.6717
                               0               0                0               0         0.188523         47.0297        0.0793643         114.035
                               0               0                0               0        0.0793754         114.019         0.188548         47.0167
75.9                           0               0                0               0         0.358643         43.3024         0.910697        -47.7926
                               0               0                0               0         0.910631        -47.7958         0.358645         43.3165
                               0               0                0               0         0.189239         45.8246        0.0800432         111.172
                               0               0                0               0         0.080047         111.152         0.189266          45.813
75.945                         0               0                0               0          0.35711         41.9252         0.911129        -49.2558
                               0               0                0               0         0.911092        -49.2601         0.357106         41.9409
                               0               0                0               0         0.189877         44.5949        0.0807247         108.289
                               0               0                0               0        0.0807208         108.265         0.189907         44.5844
75.99                          0               0                0               0         0.355505         40.5303         0.911592        -50.7381
                               0               0                0               0         0.911578        -50.7435         0.355497         40.5473
                               0               0                0               0         0.190427          43.343        0.0814062         105.392
                               0               0                0               0        0.0813944         105.365          0.19046         43.3333
76.035                         0               0                0               0         0.353843         39.1201          0.91208        -52.2368
                               0               0                0               0         0.912084         -52.243         0.353832         39.1379
                               0               0                0               0          0.19088         42.0713        0.0820853         102.487
                               0               0                0               0        0.0820655         102.459         0.190914          42.062
76.08                          0               0                0               0         0.352135         37.6968         0.912592        -53.7493
                               0               0                0               0         0.912604        -53.7561         0.352124         37.7149
                               0               0                0               0         0.191226         40.7824        0.0827597         99.5806
                               0               0                0               0        0.0827321         99.5534         0.191262          40.773
76.125                         0               0                0               0         0.350395         36.2624         0.913126        -55.2731
                               0               0                0               0         0.913136        -55.2801         0.350386         36.2801
                               0               0                0               0          0.19146          39.479        0.0834272         96.6785
                               0               0                0               0        0.0833924         96.6535         0.191497         39.4689
76.17                          0               0                0               0         0.348634         34.8186         0.913683        -56.8057
                               0               0                0               0          0.91368        -56.8125          0.34863         34.8355
                               0               0                0               0         0.191576         38.1636         0.084086         93.7855
                               0               0                0               0        0.0840447         93.7642         0.191613         38.1525
76.215                         0               0                0               0         0.346864         33.3672         0.914263        -58.3447
                               0               0                0               0         0.914238        -58.3511         0.346868         33.3828
                               0               0                0               0          0.19157         36.8388        0.0847344         90.9063
                               0               0                0               0        0.0846878           90.89         0.191606         36.8263
76.26                          0               0                0               0         0.345099         31.9094          0.91487        -59.8877
                               0               0                0               0         0.914815        -59.8936         0.345112         31.9237
                               0               0                0               0         0.191438         35.5072        0.0853707         88.0453
                               0               0                0               0        0.0853202         88.0346         0.191473         35.4931
76.305                         0               0                0               0          0.34335         30.4467         0.915504        -61.4326
                               0               0                0               0         0.915414        -61.4379         0.343372         30.4596
                               0               0                0               0         0.191179         34.1712        0.0859936         85.2065
                               0               0                0               0        0.0859409         85.2013         0.191213         34.1554
76.35                          0               0                0               0          0.34163         28.9805         0.916166        -62.9769
                               0               0                0               0          0.91604        -62.9819         0.341661         28.9924
                               0               0                0               0          0.19079         32.8329        0.0866011         82.3935
                               0               0                0               0        0.0865483         82.3927         0.190822         32.8156
76.395                         0               0                0               0         0.339949         27.5122         0.916852        -64.5186
                               0               0                0               0         0.916696        -64.5237         0.339987         27.5238
                               0               0                0               0          0.19027         31.4944        0.0871915           79.61
                               0               0                0               0        0.0871407         79.6114         0.190302          31.476
76.44                          0               0                0               0          0.33832         26.0435         0.917556        -66.0555
                               0               0                0               0         0.917379        -66.0613          0.33836         26.0558
                               0               0                0               0         0.189617         30.1578         0.087762         76.8592
                               0               0                0               0        0.0877153         76.8596         0.189649         30.1387
76.485                         0               0                0               0          0.33675         24.5765         0.918261        -67.5854
                               0               0                0               0         0.918081        -67.5927         0.336787         24.5906
                               0               0                0               0         0.188829         28.8248         0.088309         74.1443
                               0               0                0               0        0.0882688         74.1394         0.188863         28.8057
76.53                          0               0                0               0         0.335244         23.1139         0.918946        -69.1064
                               0               0                0               0         0.918782        -69.1162          0.33527         23.1311
                               0               0                0               0         0.187902         27.4976        0.0888276         71.4681
                               0               0                0               0        0.0887959         71.4532         0.187942         27.4791
76.575                         0               0                0               0         0.333803          21.659         0.919576        -70.6168
                               0               0                0               0         0.919452          -70.63         0.333809         21.6804
                               0               0                0               0         0.186832         26.1781        0.0893111         68.8331
                               0               0                0               0        0.0892898         68.8035          0.18688         26.1608
76.62                          0               0                0               0         0.332416          20.216         0.920103        -72.1154
                               0               0                0               0         0.920042        -72.1324         0.332397         20.2421
                               0               0                0               0         0.185615         24.8685         0.089751         66.2413
                               0               0                0               0        0.0897415         66.1932         0.185672         24.8531
76.665                         0               0                0               0         0.331067         18.7893         0.920471        -73.6013
                               0               0                0               0         0.920487        -73.6223         0.331019         18.8201
                               0               0                0               0         0.184243         23.5716        0.0901366         63.6942
                               0               0                0               0        0.0901394         63.6256         0.184312         23.5584
76.71                          0               0                0               0         0.329728         17.3838         0.920611        -75.0746
                               0               0                0               0         0.920708        -75.0991         0.329653         17.4185
                               0               0                0               0         0.182712         22.2904        0.0904556         61.1924
                               0               0                0               0        0.0904697          61.104         0.182792         22.2793
76.755                         0               0                0               0         0.328361         16.0041         0.920449        -76.5357
                               0               0                0               0         0.920613        -76.5628          0.32827         16.0413
                               0               0                0               0         0.181015         21.0284         0.090694         58.7355
                               0               0                0               0        0.0907172         58.6315         0.181104         21.0193
76.8                           0               0                0               0         0.326927         14.6547          0.91991        -77.9859
                               0               0                0               0         0.920114        -78.0139         0.326835         14.6922
                               0               0                0               0         0.179147         19.7898        0.0908379         56.3229
                               0               0                0               0        0.0908661          56.211         0.179241         19.7819
76.845                         0               0                0               0         0.325391         13.3392         0.918924        -79.4264
                               0               0                0               0         0.919126        -79.4535         0.325315         13.3747
                               0               0                0               0         0.177104         18.5789        0.0908743         53.9535
                               0               0                0               0         0.090902         53.8438         0.177198         18.5715
76.89                          0               0                0               0         0.323727         12.0607         0.917431        -80.8583
                               0               0                0               0         0.917592        -80.8825         0.323683          12.092
                               0               0                0               0         0.174886         17.4007        0.0907928         51.6271
                               0               0                0               0        0.0908146         51.5302         0.174973         17.3926
76.935                         0               0                0               0         0.321932         10.8219          0.91539        -82.2818
                               0               0                0               0         0.915478        -82.3016         0.321926         10.8471
                               0               0                0               0         0.172495           16.26        0.0905876         49.3445
                               0               0                0               0        0.0905996          49.269          0.17257         16.2501
76.98                          0               0                0               0         0.320021         9.62407         0.912781        -83.6958
                               0               0                0               0         0.912789        -83.7103          0.32005         9.64279
                               0               0                0               0         0.169936         15.1611        0.0902588         47.1087
                               0               0                0               0        0.0902605         47.0583         0.169996         15.1486
77.025                         0               0                0               0         0.318031          8.4674         0.909613        -85.0976
                               0               0                0               0         0.909561        -85.1072         0.318084         8.48064
                               0               0                0               0         0.167218          14.108        0.0898142         44.9242
                               0               0                0               0        0.0898086         44.8959         0.167264         14.0923
77.07                          0               0                0               0         0.316012         7.34984         0.905932        -86.4829
                               0               0                0               0         0.905862        -86.4898         0.316074          7.3604
                               0               0                0               0         0.164352         13.1027        0.0892691         42.7969
                               0               0                0               0        0.0892617         42.7799         0.164391         13.0847
77.115                         0               0                0               0         0.314016          6.2672         0.901823        -87.8464
                               0               0                0               0         0.901783        -87.8553         0.314076         6.27895
                               0               0                0               0         0.161352          12.145        0.0886465          40.732
                               0               0                0               0        0.0886422         40.7091         0.161397         12.1281
77.16                          0               0                0               0         0.312089         5.21353         0.897412        -89.1834
                               0               0                0               0          0.89743        -89.2007         0.312144         5.23026
                               0               0                0               0         0.158234          11.231        0.0879742         38.7323
                               0               0                0               0        0.0879734         38.6828         0.158302         11.2229
77.205                         0               0                0               0         0.310263         4.18196          0.89286        -90.4905