! TOUCHSTONE file generated by CST MICROWAVE STUDIO
! Date and time: Sun Jun 20 22:38:02 2021
! Project name: HIPS_d_sweep.cst
! Parameters = {fmax=120; fmin=75; b=0.46; d=24.2; a=0.63; phi=0; theta=0}
! Header version: 2018
! Port assignment regex: !\s*Touchstone port\s*([0-9]+)\s*=\s*(CST MWS port|CST DS port)\s*([0-9]+|Zmin|Zmax)\s*\(\"(.*)\"\)(\s*mode\s*([0-9]+))?.*
! Touchstone port assignment:
! Touchstone port 1 = CST MWS port Zmin ("") mode 1
! Touchstone port 2 = CST MWS port Zmin ("") mode 2
! Touchstone port 3 = CST MWS port Zmax ("") mode 1
! Touchstone port 4 = CST MWS port Zmax ("") mode 2
! S-Parameters are not renormalized. Unphysical impedance of 0 will be written to the file.
# GHz S MA R 0
75                             0               0                0               0         0.102182         174.907         0.983339        -93.8199
                               0               0                0               0          0.98312        -93.8186         0.102468         174.953
                               0               0                0               0         0.148401        -4.39901        0.0211721        -50.3975
                               0               0                0               0        0.0212612        -50.3297         0.148496        -4.36577
75.045                         0               0                0               0        0.0987246         174.127         0.984815        -94.6166
                               0               0                0               0         0.984158        -94.5685         0.098203         174.129
                               0               0                0               0         0.146538        -5.18488        0.0208875        -48.5969
                               0               0                0               0        0.0209863        -48.6774         0.146702        -5.18483
75.09                          0               0                0               0        0.0954376         173.266         0.986013        -95.4932
                               0               0                0               0         0.985016        -95.4172        0.0943817         173.222
                               0               0                0               0         0.144312        -6.05257        0.0205428        -47.3456
                               0               0                0               0        0.0206418        -47.5149         0.144524        -6.07026
75.135                         0               0                0               0        0.0923734         172.325         0.986982        -96.4504
                               0               0                0               0          0.98575        -96.3611        0.0910152         172.239
                               0               0                0               0         0.141742        -7.00245        0.0201368        -46.5791
                               0               0                0               0        0.0202309        -46.7924         0.141981        -7.02691
75.18                          0               0                0               0        0.0895799         171.305         0.987766        -97.4882
                               0               0                0               0         0.986402        -97.3964         0.088108         171.188
                               0               0                0               0         0.138841        -8.03395        0.0196683        -46.2486
                               0               0                0               0        0.0197557        -46.4723          0.13909        -8.05769
75.225                         0               0                0               0        0.0870991         170.207         0.988406        -98.6062
                               0               0                0               0         0.987005        -98.5194        0.0856593         170.075
                               0               0                0               0          0.13562        -9.14589        0.0191359        -46.3181
                               0               0                0               0        0.0192166        -46.5271         0.135867          -9.164
75.27                          0               0                0               0        0.0849665         169.036         0.988941        -99.8035
                               0               0                0               0         0.987582        -99.7266        0.0836636         168.905
                               0               0                0               0         0.132087        -10.3367        0.0185381        -46.7635
                               0               0                0               0        0.0186131        -46.9386         0.132322        -10.3461
75.315                         0               0                0               0        0.0832097         167.795         0.989401        -101.079
                               0               0                0               0         0.988147        -101.015         0.082112          167.68
                               0               0                0               0         0.128247        -11.6043        0.0178732        -47.5707
                               0               0                0               0        0.0179442        -47.6974         0.128465        -11.6034
75.36                          0               0                0               0        0.0818488          166.49         0.989815        -102.431
                               0               0                0               0         0.988708         -102.38        0.0809924         166.403
                               0               0                0               0         0.124103        -12.9466        0.0171396        -48.7363
                               0               0                0               0        0.0172082        -48.8033           0.1243        -12.9347
75.405                         0               0                0               0        0.0808959         165.123         0.990203        -103.857
                               0               0                0               0          0.98927         -103.82        0.0802903         165.073
                               0               0                0               0         0.119657        -14.3611        0.0163358        -50.2679
                               0               0                0               0        0.0164036         -50.266         0.119834        -14.3381
75.45                          0               0                0               0        0.0803558         163.697         0.990582        -105.356
                               0               0                0               0         0.989831         -105.33        0.0799895         163.689
                               0               0                0               0         0.114913         -15.845        0.0154607        -52.1865
                               0               0                0               0        0.0155287        -52.1075         0.115069        -15.8113
75.495                         0               0                0               0        0.0802263         162.213         0.990962        -106.924
                               0               0                0               0         0.990388        -106.909        0.0800721         162.248
                               0               0                0               0          0.10987        -17.3953        0.0145138          -54.53
                               0               0                0               0        0.0145825        -54.3655         0.110009        -17.3516
75.54                          0               0                0               0         0.080499         160.673         0.991349        -108.559
                               0               0                0               0         0.990935        -108.552        0.0805193         160.749
                               0               0                0               0         0.104531        -19.0084        0.0134959        -57.3599
                               0               0                0               0        0.0135651        -57.1005         0.104656        -18.9556
75.585                         0               0                0               0          0.08116         159.076         0.991745        -110.259
                               0               0                0               0         0.991463        -110.258        0.0813116         159.188
                               0               0                0               0        0.0988989        -20.6806        0.0124096         -60.773
                               0               0                0               0        0.0124782        -60.4061        0.0990129        -20.6195
75.63                          0               0                0               0        0.0821913         157.421         0.992146        -112.019
                               0               0                0               0         0.991965        -112.022        0.0824291         157.564
                               0               0                0               0         0.092977        -22.4072        0.0112605        -64.9206
                               0               0                0               0        0.0113265        -64.4292         0.093084        -22.3388
75.675                         0               0                0               0        0.0835709         155.709         0.992547        -113.836
                               0               0                0               0         0.992432        -113.842        0.0838514         155.875
                               0               0                0               0        0.0867708        -24.1828        0.0100595         -70.044
                               0               0                0               0        0.0101196        -69.4033        0.0868745        -24.1078
75.72                          0               0                0               0        0.0852744         153.939         0.992939        -115.707
                               0               0                0               0         0.992854        -115.715        0.0855584         154.122
                               0               0                0               0        0.0802878        -26.0006       0.00882647        -76.5354
                               0               0                0               0       0.00887574         -75.711        0.0803914          -25.92
75.765                         0               0                0               0        0.0872754         152.111         0.993308        -117.629
                               0               0                0               0         0.993224        -117.637        0.0875298         152.304
                               0               0                0               0        0.0735374        -27.8525       0.00759831        -85.0437
                               0               0                0               0       0.00762961        -83.9915        0.0736436        -27.7666
75.81                          0               0                0               0        0.0895466         150.226         0.993644        -119.596
                               0               0                0               0         0.993534        -119.605        0.0897456         150.424
                               0               0                0               0        0.0665315        -29.7275        0.0064442        -96.6174
                               0               0                0               0       0.00644721        -95.3012        0.0666424        -29.6366
75.855                         0               0                0               0        0.0920599         148.287         0.993932        -121.607
                               0               0                0               0         0.993776        -121.616        0.0921859         148.482
                               0               0                0               0        0.0592845        -31.6105       0.00549356        -112.692
                               0               0                0               0       0.00545488        -111.162        0.0594017        -31.5145
75.9                           0               0                0               0        0.0947875         146.295         0.994158        -123.657
                               0               0                0               0         0.993945        -123.665        0.0948309         146.483
                               0               0                0               0        0.0518136        -33.4795       0.00495971        -134.051
                               0               0                0               0       0.00486918        -132.615        0.0519378        -33.3776
75.945                         0               0                0               0        0.0977019         144.253          0.99431        -125.741
                               0               0                0               0         0.994036         -125.75         0.097661         144.431
                               0               0                0               0        0.0441384        -35.2989       0.00506817        -158.133
                               0               0                0               0       0.00493422        -157.277          0.04427        -35.1893
75.99                          0               0                0               0         0.100776         142.164         0.994375        -127.856
                               0               0                0               0         0.994045        -127.865         0.100656         142.329
                               0               0                0               0        0.0362816        -37.0049       0.00585664        -179.615
                               0               0                0               0       0.00570479        -179.426        0.0364204        -36.8841
76.035                         0               0                0               0         0.103984         140.033         0.994345        -129.998
                               0               0                0               0         0.993967        -130.008         0.103797         140.182
                               0               0                0               0        0.0282688        -38.4643       0.00715695         163.991
                               0               0                0               0       0.00700707         163.789        0.0284143        -38.3261
76.08                          0               0                0               0         0.107302         137.864         0.994211        -132.163
                               0               0                0               0         0.993802        -132.174         0.107062         137.997
                               0               0                0               0        0.0201308        -39.3327       0.00878192         151.873
                               0               0                0               0       0.00864233          151.51        0.0202822        -39.1649
76.125                         0               0                0               0         0.110704          135.66         0.993969        -134.346
                               0               0                0               0         0.993546        -134.359         0.110431         135.777
                               0               0                0               0        0.0119134        -38.3199        0.0106079           142.6
                               0               0                0               0        0.0104809         142.196        0.0120708        -38.1017
76.17                          0               0                0               0         0.114168         133.426         0.993617        -136.545
                               0               0                0               0         0.993201        -136.559         0.113881         133.529
                               0               0                0               0       0.00382847        -23.0495        0.0125618         135.134
                               0               0                0               0        0.0124474         134.741       0.00399273        -23.1561
76.215                         0               0                0               0          0.11767         131.167         0.993157        -138.754
                               0               0                0               0         0.992764         -138.77         0.117389         131.258
                               0               0                0               0       0.00520265         110.781        0.0145981         128.835
                               0               0                0               0        0.0144956         128.475       0.00507893         109.579
76.26                          0               0                0               0          0.12119         128.888         0.992593         -140.97
                               0               0                0               0         0.992238        -140.987          0.12093         128.969
                               0               0                0               0        0.0134485          119.93        0.0166857         123.316
                               0               0                0               0        0.0165945         122.998        0.0133057         119.594
76.305                         0               0                0               0         0.124706         126.593         0.991932        -143.188
                               0               0                0               0         0.991624        -143.206         0.124479         126.668
                               0               0                0               0        0.0218125         120.369        0.0188014          118.34
                               0               0                0               0        0.0187207         118.066        0.0216676         120.183
76.35                          0               0                0               0         0.128196         124.288         0.991183        -145.406
                               0               0                0               0         0.990925        -145.424         0.128008         124.359
                               0               0                0               0         0.030161         119.308        0.0209268         113.756
                               0               0                0               0        0.0208561         113.525        0.0300167         119.182
76.395                         0               0                0               0         0.131639         121.978         0.990356        -147.619
                               0               0                0               0         0.990146        -147.637         0.131491         122.047
                               0               0                0               0        0.0384524         117.732        0.0230462         109.467
                               0               0                0               0         0.022985         109.275        0.0383098         117.637
76.44                          0               0                0               0         0.135015         119.667         0.989461        -149.824
                               0               0                0               0         0.989293        -149.842         0.134899         119.736
                               0               0                0               0         0.046657         115.925        0.0251464         105.407
                               0               0                0               0        0.0250943          105.25        0.0465162         115.849
76.485                         0               0                0               0         0.138302         117.362         0.988509        -152.017
                               0               0                0               0         0.988374        -152.034         0.138209         117.429
                               0               0                0               0        0.0547491             114        0.0272155         101.532
                               0               0                0               0        0.0271721         101.403        0.0546098         113.938
76.53                          0               0                0               0         0.141482         115.066         0.987508        -154.195
                               0               0                0               0         0.987397        -154.212         0.141398         115.131
                               0               0                0               0        0.0627058         112.014        0.0292434         97.8099
                               0               0                0               0         0.029208         97.7035        0.0625674         111.961
76.575                         0               0                0               0         0.144538         112.785         0.986467        -156.355
                               0               0                0               0         0.986373        -156.372          0.14445         112.845
                               0               0                0               0        0.0705067         109.995        0.0312209         94.2188
                               0               0                0               0        0.0311928         94.1281        0.0703684         109.951
76.62                          0               0                0               0         0.147457         110.522         0.985391        -158.496
                               0               0                0               0         0.985309        -158.512         0.147355         110.575
                               0               0                0               0        0.0781337         107.964        0.0331397         90.7421
                               0               0                0               0        0.0331179         90.6618        0.0779951         107.927
76.665                         0               0                0               0         0.150229          108.28         0.984286        -160.614
                               0               0                0               0         0.984216        -160.631         0.150113         108.326
                               0               0                0               0        0.0855714         105.933        0.0349925         87.3676
                               0               0                0               0        0.0349759         87.2947        0.0854324         105.901
76.71                          0               0                0               0         0.152852         106.063         0.983158        -162.708
                               0               0                0               0         0.983097        -162.725         0.152728         106.104
                               0               0                0               0        0.0928063         103.911        0.0367725         84.0863
                               0               0                0               0        0.0367599         84.0198        0.0926674         103.883
76.755                         0               0                0               0         0.155318         103.871         0.982017        -164.778
                               0               0                0               0         0.981962        -164.795         0.155196         103.911
                               0               0                0               0        0.0998274         101.904        0.0384741         80.8916
                               0               0                0               0        0.0384644         80.8315         0.099689         101.879
76.8                           0               0                0               0         0.157611         101.709          0.98087         -166.82
                               0               0                0               0         0.980824        -166.837          0.15748         101.744
                               0               0                0               0         0.106624         99.9167        0.0400921         77.7784
                               0               0                0               0        0.0400853         77.7216         0.106486         99.8948
76.845                         0               0                0               0         0.159731         99.5796         0.979727        -168.832
                               0               0                0               0         0.979688        -168.849         0.159598          99.612
                               0               0                0               0         0.113185         97.9542        0.0416205         74.7462
                               0               0                0               0         0.041616          74.693         0.113047         97.9349
76.89                          0               0                0               0         0.162426          97.246         0.978758        -170.854
                               0               0                0               0         0.977967         -170.83         0.162765          96.575
                               0               0                0               0         0.119482         96.1031         0.043014         71.8535
                               0               0                0               0        0.0428659         72.0475         0.119438         96.0927
76.935                         0               0                0               0         0.161692         94.0883         0.965696        -172.765
                               0               0                0               0         0.965668        -172.782         0.161559          94.116
                               0               0                0               0         0.124117         92.9846        0.0436347         67.2759
                               0               0                0               0        0.0436346         67.2273         0.123984         92.9682
76.98                          0               0                0               0         0.161779         91.5119          0.96309        -174.428
                               0               0                0               0         0.943033        -174.349         0.162021         91.4637
                               0               0                0               0         0.130264         91.0583        0.0455787         64.3879
                               0               0                0               0        0.0448147         63.7207         0.129739         91.0733
77.025                         0               0                0               0         0.162367          88.741         0.954229        -176.362
                               0               0                0               0         0.943265        -176.443         0.162416         88.7099
                               0               0                0               0         0.134733         88.6127        0.0462169         60.5969
                               0               0                0               0        0.0454071         60.1381         0.134245         88.6295
77.07                          0               0                0               0         0.162903         86.0036         0.944486         -178.34
                               0               0                0               0         0.940593        -178.402         0.162699         85.9865
                               0               0                0               0         0.138465         86.1716        0.0462232         56.7943
                               0               0                0               0        0.0458024         56.6963          0.13817         86.1755
77.115                         0               0                0               0         0.163215         83.3435          0.93541         179.745
                               0               0                0               0         0.935253         179.731         0.162851         83.3301
                               0               0                0               0         0.141985         83.9049        0.0461386         53.3362
                               0               0                0               0        0.0461466         53.4109         0.141855         83.8891
77.16                          0               0                0               0         0.163294         80.7538         0.927258          177.92
                               0               0                0               0         0.928539         177.921         0.162869         80.7414
                               0               0                0               0         0.145517         81.8021        0.0462727          50.101
                               0               0                0               0        0.0464628         50.2455          0.14545         81.7769
77.205                         0               0                0               0         0.163182         78.2227         0.919899         176.161