! TOUCHSTONE file generated by CST MICROWAVE STUDIO
! Date and time: Sun Jun 20 22:37:55 2021
! Project name: HIPS_d_sweep.cst
! Parameters = {fmax=120; fmin=75; b=0.46; d=23.6; a=0.63; phi=0; theta=0}
! Header version: 2018
! Port assignment regex: !\s*Touchstone port\s*([0-9]+)\s*=\s*(CST MWS port|CST DS port)\s*([0-9]+|Zmin|Zmax)\s*\(\"(.*)\"\)(\s*mode\s*([0-9]+))?.*
! Touchstone port assignment:
! Touchstone port 1 = CST MWS port Zmin ("") mode 1
! Touchstone port 2 = CST MWS port Zmin ("") mode 2
! Touchstone port 3 = CST MWS port Zmax ("") mode 1
! Touchstone port 4 = CST MWS port Zmax ("") mode 2
! S-Parameters are not renormalized. Unphysical impedance of 0 will be written to the file.
# GHz S MA R 0
75                             0               0                0               0        0.0664781        -123.077         0.974456          -26.96
                               0               0                0               0         0.974344        -26.9709        0.0665276         -123.18
                               0               0                0               0         0.212716         62.3771        0.0363134         39.5348
                               0               0                0               0        0.0362217         39.5999         0.212572          62.381
75.045                         0               0                0               0        0.0660462        -124.709         0.971661        -28.4089
                               0               0                0               0           0.9714        -28.3779        0.0660937        -124.712
                               0               0                0               0         0.213648         61.2755        0.0362631         38.3684
                               0               0                0               0        0.0359953         37.9653         0.213507         61.2821
75.09                          0               0                0               0        0.0656723        -126.347         0.969113        -29.8666
                               0               0                0               0         0.968736        -29.7982        0.0657137        -126.261
                               0               0                0               0         0.214569         60.1431        0.0362177         37.1734
                               0               0                0               0        0.0357959         36.3743          0.21443         60.1521
75.135                         0               0                0               0        0.0653558         -127.99          0.96681        -31.3331
                               0               0                0               0         0.966344        -31.2318         0.065388        -127.825
                               0               0                0               0         0.215473          58.979        0.0361767         35.9489
                               0               0                0               0        0.0356207         34.8184         0.215336         58.9902
75.18                          0               0                0               0        0.0650961        -129.634         0.964747        -32.8087
                               0               0                0               0         0.964221        -32.6786        0.0651167        -129.401
                               0               0                0               0         0.216356         57.7823        0.0361395         34.6937
                               0               0                0               0        0.0354674         33.2899         0.216221         57.7955
75.225                         0               0                0               0        0.0648926        -131.278          0.96292        -34.2935
                               0               0                0               0         0.962358        -34.1386        0.0649002        -130.986
                               0               0                0               0         0.217211         56.5521        0.0361057         33.4068
                               0               0                0               0        0.0353337         31.7817         0.217078         56.5672
75.27                          0               0                0               0        0.0647449         -132.92         0.961325        -35.7877
                               0               0                0               0         0.960752        -35.6118        0.0647387         -132.58
                               0               0                0               0         0.218033         55.2876        0.0360746         32.0868
                               0               0                0               0        0.0352174         30.2874         0.217902         55.3042
75.315                         0               0                0               0        0.0646523        -134.558         0.959958        -37.2916
                               0               0                0               0         0.959394        -37.0984        0.0646322        -134.178
                               0               0                0               0         0.218814         53.9879        0.0360454         30.7323
                               0               0                0               0        0.0351165         28.8008         0.218685         54.0059
75.36                          0               0                0               0        0.0646147         -136.19         0.958815        -38.8054
                               0               0                0               0          0.95828        -38.5983        0.0645811         -135.78
                               0               0                0               0         0.219547         52.6521        0.0360174         29.3417
                               0               0                0               0        0.0350291         27.3163          0.21942         52.6712
75.405                         0               0                0               0        0.0646316        -137.815         0.957891        -40.3293
                               0               0                0               0         0.957402        -40.1118        0.0645854        -137.383
                               0               0                0               0         0.220224         51.2794        0.0359896         27.9133
                               0               0                0               0        0.0349534         25.8285         0.220097         51.2995
75.45                          0               0                0               0        0.0647029        -139.431         0.957183        -41.8637
                               0               0                0               0         0.956754        -41.6389        0.0646454        -138.985
                               0               0                0               0         0.220834         49.8691         0.035961         26.4453
                               0               0                0               0        0.0348875         24.3319         0.220708           49.89
75.495                         0               0                0               0        0.0648285        -141.037         0.956685         -43.409
                               0               0                0               0         0.956329        -43.1798        0.0647614        -140.584
                               0               0                0               0         0.221367         48.4206        0.0359304         24.9356
                               0               0                0               0        0.0348296         22.8216         0.221243          48.442
75.54                          0               0                0               0        0.0650086        -142.631         0.956393        -44.9653
                               0               0                0               0         0.956119        -44.7348        0.0649338        -142.179
                               0               0                0               0         0.221813         46.9331        0.0358966         23.3821
                               0               0                0               0        0.0347778         21.2924         0.221689         46.9548
75.585                         0               0                0               0        0.0652435        -144.213         0.956301        -46.5333
                               0               0                0               0         0.956116         -46.304        0.0651629        -143.768
                               0               0                0               0          0.22216         45.4063        0.0358581         21.7823
                               0               0                0               0        0.0347303         19.7393         0.222037          45.428
75.63                          0               0                0               0        0.0655336        -145.782         0.956403        -48.1132
                               0               0                0               0         0.956312        -47.8877        0.0654494         -145.35
                               0               0                0               0         0.222394         43.8397        0.0358132         20.1337
                               0               0                0               0        0.0346849         18.1574         0.222272         43.8613
75.675                         0               0                0               0        0.0658797        -147.337         0.956692        -49.7055
                               0               0                0               0         0.956698        -49.4861         0.065794        -146.923
                               0               0                0               0         0.222503         42.2331        0.0357603         18.4336
                               0               0                0               0        0.0346397         16.5415         0.222381         42.2544
75.72                          0               0                0               0        0.0662826        -148.878         0.957162        -51.3108
                               0               0                0               0         0.957265        -51.0996        0.0661975        -148.487
                               0               0                0               0         0.222472         40.5865        0.0356971         16.6789
                               0               0                0               0        0.0345923         14.8866          0.22235         40.6073
75.765                         0               0                0               0        0.0667435        -150.405         0.957805        -52.9295
                               0               0                0               0         0.958001        -52.7286        0.0666611        -150.042
                               0               0                0               0         0.222287         38.9002        0.0356216         14.8666
                               0               0                0               0        0.0345403         13.1874         0.222165         38.9201
75.81                          0               0                0               0         0.067264        -151.918         0.958612        -54.5622
                               0               0                0               0         0.958894        -54.3733         0.067186        -151.586
                               0               0                0               0         0.221932         37.1744        0.0355312         12.9933
                               0               0                0               0         0.034481         11.4386          0.22181         37.1935
75.855                         0               0                0               0        0.0678458        -153.417         0.959572        -56.2094
                               0               0                0               0         0.959934        -56.0342        0.0677739         -153.12
                               0               0                0               0         0.221391           35.41         0.035423         11.0555
                               0               0                0               0        0.0344115         9.63466         0.221269          35.428
75.9                           0               0                0               0         0.068491        -154.903         0.960674        -57.8719
                               0               0                0               0         0.961105        -57.7116        0.0684265        -154.644
                               0               0                0               0          0.22065          33.608        0.0352939         9.04938
                               0               0                0               0        0.0343286         7.76991         0.220527         33.6247
75.945                         0               0                0               0        0.0692021        -156.378         0.961907        -59.5502
                               0               0                0               0         0.962393        -59.4059        0.0691459        -156.159
                               0               0                0               0         0.219691         31.7696        0.0351406         6.97121
                               0               0                0               0        0.0342287         5.83857         0.219567         31.7849
75.99                          0               0                0               0        0.0699818        -157.842         0.963255        -61.2449
                               0               0                0               0         0.963781        -61.1176        0.0699347        -157.665
                               0               0                0               0         0.218501         29.8967        0.0349593         4.81693
                               0               0                0               0        0.0341079         3.83466         0.218376         29.9105
76.035                         0               0                0               0        0.0708334        -159.298         0.964701        -62.9568
                               0               0                0               0         0.965251        -62.8471        0.0707955        -159.164
                               0               0                0               0         0.217065         27.9915        0.0347458         2.58243
                               0               0                0               0        0.0339618         1.75211         0.216938         28.0036
76.08                          0               0                0               0        0.0717604        -160.748         0.966229        -64.6865
                               0               0                0               0         0.966783        -64.5948        0.0717315        -160.658
                               0               0                0               0         0.215368         26.0564        0.0344957        0.263539
                               0               0                0               0        0.0337856       -0.415311         0.215239         26.0667
76.125                         0               0                0               0        0.0727667        -162.195         0.967816        -66.4346
                               0               0                0               0         0.968354        -66.3609        0.0727461        -162.149
                               0               0                0               0         0.213399         24.0944        0.0342041        -2.14394
                               0               0                0               0         0.033574        -2.67385         0.213269          24.103
76.17                          0               0                0               0        0.0738565        -163.641         0.969439        -68.2018
                               0               0                0               0         0.969941         -68.146        0.0738429         -163.64
                               0               0                0               0         0.211148         22.1091        0.0338659        -4.64415
                               0               0                0               0        0.0333213        -5.02976         0.211015         22.1158
76.215                         0               0                0               0        0.0750342        -165.092         0.971073        -69.9885
                               0               0                0               0         0.971516        -69.9501        0.0750261        -165.135
                               0               0                0               0         0.208607         20.1045        0.0334757        -7.24108
                               0               0                0               0        0.0330213        -7.48923         0.208471         20.1092
76.26                          0               0                0               0        0.0763046        -166.552         0.972688        -71.7954
                               0               0                0               0         0.973052        -71.7736        0.0762998        -166.637
                               0               0                0               0         0.205769         18.0848        0.0330277        -9.93853
                               0               0                0               0        0.0326671        -10.0582         0.205631         18.0876
76.305                         0               0                0               0        0.0776723        -168.025         0.974251        -73.6227
                               0               0                0               0         0.974516        -73.6164        0.0776682         -168.15
                               0               0                0               0         0.202632         16.0549        0.0325163          -12.74
                               0               0                0               0         0.032252        -12.7424         0.202491         16.0559
76.35                          0               0                0               0        0.0791419        -169.518         0.975726        -75.4708
                               0               0                0               0         0.975875        -75.4786        0.0791357        -169.682
                               0               0                0               0         0.199195         14.0202        0.0319357        -15.6485
                               0               0                0               0        0.0317684         -15.547         0.199051         14.0193
76.395                         0               0                0               0        0.0807178        -171.037         0.977075        -77.3397
                               0               0                0               0         0.977092          -77.36        0.0807061        -171.236
                               0               0                0               0         0.195462         11.9863        0.0312803        -18.6667
                               0               0                0               0        0.0312092        -18.4765         0.195316         11.9835
76.44                          0               0                0               0        0.0824035         -172.59         0.978256        -79.2292
                               0               0                0               0         0.978129        -79.2601        0.0823831        -172.821
                               0               0                0               0          0.19144         9.95931         0.030545        -21.7965
                               0               0                0               0        0.0305671        -21.5347          0.19129         9.95475
76.485                         0               0                0               0        0.0842017        -174.185         0.979223        -81.1389
                               0               0                0               0         0.978946        -81.1783        0.0841692        -174.443
                               0               0                0               0         0.187137          7.9455        0.0297252        -25.0393
                               0               0                0               0        0.0298354        -24.7244         0.186984         7.93927
76.53                          0               0                0               0        0.0861134         -175.83          0.97993         -83.068
                               0               0                0               0         0.979501        -83.1137        0.0860657         -176.11
                               0               0                0               0         0.182567         5.95158        0.0288174        -28.3958
                               0               0                0               0         0.029008        -28.0476         0.182412         5.94378
76.575                         0               0                0               0        0.0881377        -177.535         0.980328        -85.0156
                               0               0                0               0         0.979751        -85.0652        0.0880722        -177.831
                               0               0                0               0         0.177745         3.98443        0.0278192        -31.8663
                               0               0                0               0        0.0280803        -31.5048         0.177588         3.97518
76.62                          0               0                0               0         0.090271        -179.307         0.980367        -86.9799
                               0               0                0               0         0.979655        -87.0312         0.090186        -179.615
                               0               0                0               0         0.172691         2.05116        0.0267296        -35.4505
                               0               0                0               0        0.0270492        -35.0959         0.172531         2.04058
76.665                         0               0                0               0        0.0925062         178.843             0.98        -88.9591
                               0               0                0               0         0.979171        -89.0098        0.0924009         178.529
                               0               0                0               0         0.167424        0.159016        0.0255494        -39.1485
                               0               0                0               0        0.0259136        -38.8199         0.167263        0.147242
76.71                          0               0                0               0        0.0948322         176.907          0.97918        -90.9506
                               0               0                0               0          0.97826        -90.9986        0.0947073         176.594
                               0               0                0               0         0.161968        -1.68458        0.0242813        -42.9606
                               0               0                0               0        0.0246749        -42.6758         0.161805        -1.69741
76.755                         0               0                0               0        0.0972332         174.879         0.977868        -92.9514
                               0               0                0               0         0.976888         -92.995         0.097091         174.572
                               0               0                0               0         0.156346        -3.47208        0.0229303        -46.8887
                               0               0                0               0        0.0233372        -46.6632         0.156183        -3.48583
76.8                           0               0                0               0        0.0996879         172.751         0.976028        -94.9581
                               0               0                0               0         0.975024        -94.9959        0.0995327         172.455
                               0               0                0               0         0.150585        -5.19577        0.0215031        -50.9375
                               0               0                0               0        0.0219073        -50.7836         0.150421         -5.2103
76.845                         0               0                0               0          0.10217         170.521         0.973634        -96.9667
                               0               0                0               0         0.972647        -96.9977         0.102008          170.24
                               0               0                0               0         0.144709        -6.84773        0.0200087        -55.1161
                               0               0                0               0         0.020395        -55.0426         0.144545         -6.8629
76.89                          0               0                0               0         0.104647         168.186         0.970671        -98.9728
                               0               0                0               0         0.969742        -98.9966         0.104486         167.924
                               0               0                0               0         0.138745         -8.4198        0.0184578        -59.4407
                               0               0                0               0        0.0188127        -59.4526         0.138581        -8.43546
76.935                         0               0                0               0         0.107084          165.75         0.967137        -100.972
                               0               0                0               0         0.966307        -100.988         0.106932         165.508
                               0               0                0               0         0.132719        -9.90343        0.0168629        -63.9385
                               0               0                0               0        0.0171749        -64.0369         0.132555        -9.91945
76.98                          0               0                0               0          0.10944         163.217         0.963043        -102.959
                               0               0                0               0         0.962348        -102.969         0.109308         162.997
                               0               0                0               0         0.126654        -11.2896        0.0152378        -68.6537
                               0               0                0               0        0.0154981        -68.8361         0.126492        -11.3058
77.025                         0               0                0               0         0.111676         160.598         0.958416        -104.929
                               0               0                0               0         0.957887        -104.934         0.111573         160.398
                               0               0                0               0         0.120576        -12.5686        0.0135976        -73.6569
                               0               0                0               0        0.0138003        -73.9186         0.120415        -12.5849
77.07                          0               0                0               0         0.113753         157.905         0.953296        -106.877
                               0               0                0               0         0.952956        -106.879         0.113688         157.723
                               0               0                0               0         0.114506        -13.7297        0.0119585        -79.0617
                               0               0                0               0        0.0121009        -79.3972         0.114347         -13.746
77.115                         0               0                0               0         0.115636         155.155         0.947739        -108.799
                               0               0                0               0         0.947601          -108.8         0.115615         154.987
                               0               0                0               0         0.108469        -14.7613        0.0103388        -85.0523
                               0               0                0               0        0.0104207        -85.4595         0.108311        -14.7774
77.16                          0               0                0               0         0.117297         152.364         0.941812        -110.691
                               0               0                0               0         0.941877        -110.693         0.117323         152.208
                               0               0                0               0         0.102483        -15.6497       0.00875995        -91.9368
                               0               0                0               0        0.0087839        -92.4251         0.102328        -15.6655
77.205                         0               0                0               0         0.118716         149.554         0.935591         -112.55