! TOUCHSTONE file generated by CST MICROWAVE STUDIO
! Date and time: Sun Jun 20 22:37:28 2021
! Project name: HIPS_d_sweep.cst
! Parameters = {fmax=120; fmin=75; b=0.46; d=21.15; a=0.63; phi=0; theta=0}
! Header version: 2018
! Port assignment regex: !\s*Touchstone port\s*([0-9]+)\s*=\s*(CST MWS port|CST DS port)\s*([0-9]+|Zmin|Zmax)\s*\(\"(.*)\"\)(\s*mode\s*([0-9]+))?.*
! Touchstone port assignment:
! Touchstone port 1 = CST MWS port Zmin ("") mode 1
! Touchstone port 2 = CST MWS port Zmin ("") mode 2
! Touchstone port 3 = CST MWS port Zmax ("") mode 1
! Touchstone port 4 = CST MWS port Zmax ("") mode 2
! S-Parameters are not renormalized. Unphysical impedance of 0 will be written to the file.
# GHz S MA R 0
75                             0               0                0               0         0.109883         -15.189         0.986809        -107.925
                               0               0                0               0          0.98665        -107.933         0.109908        -15.1206
                               0               0                0               0         0.108684        -15.2415        0.0497571        -4.00989
                               0               0                0               0         0.049765        -4.02516         0.108757         -15.187
75.045                         0               0                0               0         0.112493        -16.4891         0.988058        -108.681
                               0               0                0               0         0.988715        -108.709         0.112437         -16.371
                               0               0                0               0         0.106348        -16.0135        0.0500578        -5.04352
                               0               0                0               0        0.0500861        -5.16196         0.106403        -15.9505
75.09                          0               0                0               0         0.115116        -17.7488         0.988916        -109.492
                               0               0                0               0         0.990173        -109.527         0.114986        -17.5963
                               0               0                0               0         0.103816        -16.7913        0.0503225        -6.11835
                               0               0                0               0        0.0503748        -6.31847         0.103858        -16.7218
75.135                         0               0                0               0         0.117717        -18.9641         0.989425        -110.359
                               0               0                0               0         0.991059        -110.394         0.117525        -18.7921
                               0               0                0               0         0.101078        -17.5765         0.050544        -7.23874
                               0               0                0               0        0.0506216        -7.49707         0.101111        -17.5025
75.18                          0               0                0               0         0.120253        -20.1336         0.989629        -111.286
                               0               0                0               0         0.991425        -111.315         0.120016        -19.9556
                               0               0                0               0        0.0981235        -18.3711        0.0507148        -8.40975
                               0               0                0               0         0.050816        -8.70143        0.0981517         -18.294
75.225                         0               0                0               0         0.122672        -21.2587         0.989579        -112.274
                               0               0                0               0         0.991339        -112.296         0.122411        -21.0862
                               0               0                0               0        0.0949446         -19.177        0.0508269        -9.63716
                               0               0                0               0        0.0509464        -9.93692        0.0949716        -19.0981
75.27                          0               0                0               0         0.124915         -22.345         0.989325        -113.325
                               0               0                0               0         0.990882        -113.338         0.124657        -22.1869
                               0               0                0               0         0.091534        -19.9961        0.0508717        -10.9275
                               0               0                0               0        0.0510005        -11.2108         0.091563        -19.9164
75.315                         0               0                0               0         0.126922        -23.4028         0.988921        -114.439
                               0               0                0               0         0.990144        -114.446         0.126694        -23.2644
                               0               0                0               0        0.0878857          -20.83        0.0508406        -12.2881
                               0               0                0               0        0.0509663        -12.5326        0.0879197          -20.75
75.36                          0               0                0               0         0.128633        -24.4468         0.988419        -115.618
                               0               0                0               0         0.989218        -115.621         0.128461          -24.33
                               0               0                0               0        0.0839957        -21.6797         0.050725        -13.7271
                               0               0                0               0        0.0508324        -13.9138        0.0840367        -21.5998
75.405                         0               0                0               0         0.129992        -25.4962          0.98787         -116.86
                               0               0                0               0         0.988198        -116.864           0.1299        -25.3996
                               0               0                0               0        0.0798612        -22.5455        0.0505163        -15.2531
                               0               0                0               0        0.0505887        -15.3682        0.0799108        -22.4657
75.45                          0               0                0               0         0.130958        -26.5733         0.987322        -118.165
                               0               0                0               0         0.987172        -118.174          0.13096        -26.4928
                               0               0                0               0        0.0754814        -23.4263        0.0502068        -16.8753
                               0               0                0               0        0.0502274         -16.911        0.0755402        -23.3465
75.495                         0               0                0               0         0.131502         -27.702          0.98682        -119.533
                               0               0                0               0         0.986221         -119.55         0.131605        -27.6318
                               0               0                0               0        0.0708568        -24.3192        0.0497892        -18.6035
                               0               0                0               0        0.0497434        -18.5584        0.0709249         -24.239
75.54                          0               0                0               0         0.131613        -28.9058         0.986404        -120.961
                               0               0                0               0         0.985414        -120.988         0.131814        -28.8396
                               0               0                0               0        0.0659899        -25.2187        0.0492577        -20.4472
                               0               0                0               0        0.0491348        -20.3266        0.0660665        -25.1373
75.585                         0               0                0               0           0.1313        -30.2057         0.986107        -122.448
                               0               0                0               0         0.984806        -122.487         0.131586         -30.138
                               0               0                0               0        0.0608845        -26.1151        0.0486076        -22.4158
                               0               0                0               0        0.0484027        -22.2309        0.0609683        -26.0316
75.63                          0               0                0               0         0.130583        -31.6186         0.985957        -123.991
                               0               0                0               0         0.984437        -124.041         0.130935        -31.5453
                               0               0                0               0        0.0555464        -26.9924        0.0478357        -24.5183
                               0               0                0               0         0.047551        -24.2848        0.0556357        -26.9055
75.675                         0               0                0               0         0.129497        -33.1559         0.985974        -125.587
                               0               0                0               0         0.984331        -125.648         0.129891        -33.0752
                               0               0                0               0        0.0499828        -27.8244        0.0469408        -26.7624
                               0               0                0               0        0.0465858        -26.4991        0.0500755        -27.7327
75.72                          0               0                0               0          0.12808        -34.8233         0.986172        -127.233
                               0               0                0               0           0.9845        -127.302         0.128492        -34.7352
                               0               0                0               0        0.0442031        -28.5678        0.0459233        -29.1548
                               0               0                0               0        0.0455144        -28.8811         0.044297         -28.469
75.765                         0               0                0               0         0.126375        -36.6206         0.986557        -128.925
                               0               0                0               0         0.984941        -128.999         0.126783        -36.5267
                               0               0                0               0        0.0382195        -29.1472        0.0447856        -31.7003
                               0               0                0               0        0.0443449         -31.435        0.0383122        -29.0384
75.81                          0               0                0               0         0.124421        -38.5421         0.987125         -130.66
                               0               0                0               0         0.985637        -130.736         0.124806        -38.4453
                               0               0                0               0        0.0320474        -29.4235        0.0435319         -34.402
                               0               0                0               0        0.0430851        -34.1613         0.032137           -29.3
75.855                         0               0                0               0         0.122255        -40.5779         0.987869        -132.434
                               0               0                0               0         0.986563        -132.507         0.122603        -40.4815
                               0               0                0               0        0.0257096        -29.1109        0.0421681        -37.2608
                               0               0                0               0        0.0417423        -37.0576        0.0257945        -28.9652
75.9                           0               0                0               0         0.119907        -42.7146          0.98877        -134.243
                               0               0                0               0         0.987685        -134.309          0.12021        -42.6216
                               0               0                0               0        0.0192451        -27.5259         0.040702        -40.2758
                               0               0                0               0        0.0403234        -40.1188        0.0193247        -27.3446
75.945                         0               0                0               0         0.117406        -44.9361         0.989806        -136.082
                               0               0                0               0         0.988962        -136.139         0.117657         -44.849
                               0               0                0               0        0.0127491        -22.5683        0.0391425        -43.4439
                               0               0                0               0        0.0388343        -43.3379         0.012825        -22.3283
75.99                          0               0                0               0         0.114771         -47.225         0.990946        -137.948
                               0               0                0               0         0.990347        -137.993          0.11497        -47.1455
                               0               0                0               0       0.00664694        -4.30304        0.0375002        -46.7605
                               0               0                0               0        0.0372807        -46.7069       0.00672706        -4.03927
76.035                         0               0                0               0          0.11202        -49.5626         0.992155        -139.837
                               0               0                0               0          0.99179        -139.867          0.11217        -49.4913
                               0               0                0               0       0.00460682         68.5776        0.0357867        -50.2198
                               0               0                0               0        0.0356682        -50.2172       0.00466239         67.8698
76.08                          0               0                0               0          0.10917        -51.9298         0.993393        -141.745
                               0               0                0               0          0.99324        -141.759         0.109274        -51.8665
                               0               0                0               0       0.00993139         107.662        0.0340146        -53.8156
                               0               0                0               0        0.0340025        -53.8603       0.00994654         107.235
76.125                         0               0                0               0         0.106233        -54.3078         0.994616        -143.668
                               0               0                0               0         0.994645        -143.665         0.106298        -54.2513
                               0               0                0               0        0.0167414         116.262         0.032197        -57.5419
                               0               0                0               0        0.0322901        -57.6289        0.0167541         116.016
76.17                          0               0                0               0         0.103223        -56.6778         0.995779        -145.601
                               0               0                0               0         0.995951        -145.583         0.103256        -56.6264
                               0               0                0               0        0.0238485         118.695        0.0303474        -61.3937
                               0               0                0               0         0.030538        -61.5175        0.0238666         118.526
76.215                         0               0                0               0         0.100152        -59.0214         0.996833        -147.543
                               0               0                0               0          0.99711        -147.511          0.10016        -58.9732
                               0               0                0               0        0.0310689         119.067        0.0284797        -65.3684
                               0               0                0               0        0.0287543        -65.5229        0.0310939         118.938
76.26                          0               0                0               0        0.0970329        -61.3211         0.997732        -149.489
                               0               0                0               0         0.998074        -149.445        0.0970253        -61.2737
                               0               0                0               0        0.0383351         118.501        0.0266073        -69.4665
                               0               0                0               0        0.0269479        -69.6458        0.0383666         118.397
76.305                         0               0                0               0        0.0938801        -63.5597         0.998428        -151.435
                               0               0                0               0         0.998798        -151.384        0.0938639        -63.5112
                               0               0                0               0        0.0456049         117.424        0.0247434        -73.6934
                               0               0                0               0        0.0251287        -73.8915        0.0456418         117.338
76.35                          0               0                0               0        0.0907078        -65.7209         0.998877         -153.38
                               0               0                0               0         0.999243        -153.325        0.0906899        -65.6695
                               0               0                0               0        0.0528445         116.036        0.0229003        -78.0607
                               0               0                0               0        0.0233071        -78.2713        0.0528852         115.962
76.395                         0               0                0               0        0.0875308        -67.7892         0.999037         -155.32
                               0               0                0               0         0.999373        -155.264        0.0875174        -67.7335
                               0               0                0               0        0.0600233         114.443          0.02109        -82.5882
                               0               0                0               0         0.021494        -82.8049        0.0600662         114.379
76.44                          0               0                0               0        0.0843647        -69.7496         0.998872        -157.253
                               0               0                0               0         0.999158        -157.201        0.0843609        -69.6889
                               0               0                0               0        0.0671125         112.708        0.0193234        -87.3061
                               0               0                0               0         0.019701        -87.5221         0.067156         112.653
76.485                         0               0                0               0        0.0812253        -71.5878          0.99835        -159.176
                               0               0                0               0         0.998574        -159.132         0.081235         -71.522
                               0               0                0               0        0.0740852         110.872        0.0176109        -92.2582
                               0               0                0               0        0.0179396        -92.4666        0.0741278         110.824
76.53                          0               0                0               0        0.0781288        -73.2904         0.997445        -161.088
                               0               0                0               0         0.997603        -161.054        0.0781547        -73.2201
                               0               0                0               0        0.0809159         108.964        0.0159624        -97.5057
                               0               0                0               0        0.0162221        -97.7007        0.0809566         108.923
76.575                         0               0                0               0        0.0750912        -74.8447         0.996138        -162.985
                               0               0                0               0         0.996232        -162.966        0.0751346        -74.7709
                               0               0                0               0        0.0875811         107.005        0.0143877        -103.132
                               0               0                0               0        0.0145612        -103.311         0.087619         106.969
76.62                          0               0                0               0        0.0721286        -76.2387         0.994416        -164.867
                               0               0                0               0         0.994456        -164.865        0.0721896        -76.1629
                               0               0                0               0        0.0940595          105.01        0.0128976        -109.251
                               0               0                0               0        0.0129709        -109.419        0.0940943         104.981
76.665                         0               0                0               0        0.0692567        -77.4613         0.992273        -166.732
                               0               0                0               0         0.992273        -166.748         0.069334        -77.3855
                               0               0                0               0         0.100332         102.993        0.0115041        -116.011
                               0               0                0               0        0.0114673         -116.19         0.100364          102.97
76.71                          0               0                0               0        0.0664909        -78.5028          0.98971        -168.578
                               0               0                0               0         0.989689        -168.612        0.0665822        -78.4291
                               0               0                0               0         0.106382         100.966        0.0102225        -123.603
                               0               0                0               0        0.0100701        -123.846         0.106412         100.947
76.755                         0               0                0               0        0.0638461        -79.3547         0.986736        -170.404
                               0               0                0               0         0.986714        -170.457        0.0639484         -79.285
                               0               0                0               0         0.112197         98.9352       0.00907237        -132.259
                               0               0                0               0       0.00880449        -132.676         0.112224         98.9213
76.8                           0               0                0               0        0.0613367        -80.0103         0.983363        -172.208
                               0               0                0               0         0.983363        -172.278        0.0614462        -79.9464
                               0               0                0               0         0.117765         96.9101       0.00807957        -142.229
                               0               0                0               0       0.00770389        -143.011         0.117792         96.9004
76.845                         0               0                0               0        0.0589767        -80.4654         0.979613        -173.991
                               0               0                0               0         0.979655        -174.075         0.059089        -80.4085
                               0               0                0               0         0.123077         94.8967        0.0072765        -153.703
                               0               0                0               0        0.0068109        -155.137         0.123106         94.8906
76.89                          0               0                0               0        0.0567789        -80.7186         0.975509         -175.75
                               0               0                0               0          0.97561        -175.845        0.0568897        -80.6689
                               0               0                0               0          0.12813         92.9006        0.0066989        -166.677
                               0               0                0               0       0.00617373         -169.08         0.128161         92.8973
76.935                         0               0                0               0        0.0547555         -80.772         0.971081        -177.486
                               0               0                0               0         0.971251        -177.586        0.0548606         -80.729
                               0               0                0               0          0.13292         90.9265       0.00637616         179.218
                               0               0                0               0       0.00583209         175.689         0.132954         90.9253
76.98                          0               0                0               0        0.0529175        -80.6322         0.966363        -179.197
                               0               0                0               0         0.966601        -179.298         0.053013        -80.5939
                               0               0                0               0         0.137446         88.9785       0.00631643         164.732
                               0               0                0               0       0.00579465         160.298         0.137486         88.9783
77.025                         0               0                0               0        0.0512742        -80.3104         0.961389         179.117
                               0               0                0               0         0.961684         179.022         0.051357        -80.2738
                               0               0                0               0         0.141712         87.0597       0.00649583         150.729
                               0               0                0               0       0.00602665         145.991         0.141758         87.0597
77.07                          0               0                0               0        0.0498332        -79.8232         0.956197         177.455
                               0               0                0               0         0.956523         177.373        0.0499011        -79.7841
                               0               0                0               0         0.145719         85.1731       0.00686076         137.826
                               0               0                0               0        0.0064632         133.518         0.145772         85.1722
77.115                         0               0                0               0           0.0486        -79.1927         0.950827         175.819
                               0               0                0               0         0.951138         175.756        0.0486518        -79.1459
                               0               0                0               0         0.149475         83.3208       0.00733922         126.243
                               0               0                0               0        0.0070348          123.01         0.149535         83.3181
77.16                          0               0                0               0        0.0475772        -78.4458         0.945318         174.207
                               0               0                0               0         0.945554          174.17        0.0476131        -78.3858
                               0               0                0               0         0.152987         81.5046       0.00785065         115.953
                               0               0                0               0       0.00768388         114.238         0.153053         81.4992
77.205                         0               0                0               0        0.0467647        -77.6139         0.939711         172.621