! TOUCHSTONE file generated by CST MICROWAVE STUDIO
! Date and time: Sun Jun 20 22:37:12 2021
! Project name: HIPS_d_sweep.cst
! Parameters = {fmax=120; fmin=75; b=0.46; d=19.35; a=0.63; phi=0; theta=0}
! Header version: 2018
! Port assignment regex: !\s*Touchstone port\s*([0-9]+)\s*=\s*(CST MWS port|CST DS port)\s*([0-9]+|Zmin|Zmax)\s*\(\"(.*)\"\)(\s*mode\s*([0-9]+))?.*
! Touchstone port assignment:
! Touchstone port 1 = CST MWS port Zmin ("") mode 1
! Touchstone port 2 = CST MWS port Zmin ("") mode 2
! Touchstone port 3 = CST MWS port Zmax ("") mode 1
! Touchstone port 4 = CST MWS port Zmax ("") mode 2
! S-Parameters are not renormalized. Unphysical impedance of 0 will be written to the file.
# GHz S MA R 0
75                             0               0                0               0         0.226141        -170.872         0.955752         96.1112
                               0               0                0               0         0.955575         96.1174         0.226217        -170.908
                               0               0                0               0         0.172048         11.1572        0.0750617          38.805
                               0               0                0               0         0.074955         38.8154         0.172102         11.1728
75.045                         0               0                0               0         0.229537         -171.59         0.954425         95.4561
                               0               0                0               0          0.95532         95.4825          0.22965         -171.62
                               0               0                0               0         0.170477         10.7085        0.0757048         38.0977
                               0               0                0               0        0.0760089         37.9693         0.170511         10.7191
75.09                          0               0                0               0         0.232648        -172.355         0.953574         94.7416
                               0               0                0               0          0.95498         94.7772         0.232779        -172.381
                               0               0                0               0         0.168758          10.183        0.0762695         37.2619
                               0               0                0               0        0.0768537         37.1554         0.168784         10.1909
75.135                         0               0                0               0         0.235465        -173.173         0.953098         93.9656
                               0               0                0               0         0.954607          94.003           0.2356        -173.196
                               0               0                0               0         0.166899         9.58467        0.0767644         36.2983
                               0               0                0               0        0.0774386         36.2954         0.166927         9.59164
75.18                          0               0                0               0         0.237982        -174.045         0.952907         93.1275
                               0               0                0               0         0.954244         93.1617         0.238114        -174.067
                               0               0                0               0         0.164907         8.91712        0.0771964         35.2085
                               0               0                0               0        0.0777855         35.3061         0.164941         8.92458
75.225                         0               0                0               0         0.240199        -174.975         0.952923         92.2272
                               0               0                0               0         0.953926         92.2551         0.240322        -174.996
                               0               0                0               0         0.162786         8.18399         0.077571         33.9954
                               0               0                0               0        0.0779728         34.1386         0.162827         8.19289
75.27                          0               0                0               0         0.242116        -175.963         0.953087         91.2653
                               0               0                0               0          0.95368         91.2854         0.242229        -175.985
                               0               0                0               0         0.160533          7.3887        0.0778919         32.6624
                               0               0                0               0        0.0780852         32.7892         0.160584         7.39958
75.315                         0               0                0               0         0.243736        -177.013         0.953349          90.243
                               0               0                0               0         0.953528         90.2549          0.24384        -177.035
                               0               0                0               0         0.158149         6.53451        0.0781614         31.2133
                               0               0                0               0        0.0781788         31.2821         0.158208         6.54753
75.36                          0               0                0               0         0.245065        -178.122         0.953675         89.1616
                               0               0                0               0         0.953484         89.1658         0.245162        -178.145
                               0               0                0               0         0.155629         5.62449        0.0783806         29.6524
                               0               0                0               0        0.0782758         29.6485         0.155695         5.63956
75.405                         0               0                0               0          0.24611        -179.293          0.95404         88.0227
                               0               0                0               0         0.953554         88.0204         0.246204        -179.316
                               0               0                0               0         0.152968         4.66159         0.078549         27.9841
                               0               0                0               0        0.0783752         27.9137          0.15304         4.67836
75.45                          0               0                0               0          0.24688         179.478          0.95443         86.8284
                               0               0                0               0         0.953743          86.821         0.246973         179.455
                               0               0                0               0         0.150162         3.64868        0.0786655         26.2129
                               0               0                0               0         0.078465         26.0946         0.150238         3.66664
75.495                         0               0                0               0         0.247384          178.19         0.954838         85.5804
                               0               0                0               0          0.95405         85.5698          0.24748         178.168
                               0               0                0               0         0.147205         2.58854        0.0787279         24.3434
                               0               0                0               0        0.0785297         24.2004         0.147284         2.60711
75.54                          0               0                0               0         0.247631         176.846         0.955265          84.281
                               0               0                0               0         0.954468         84.2692         0.247733         176.825
                               0               0                0               0          0.14409         1.48398        0.0787336         22.3802
                               0               0                0               0        0.0785544         22.2354          0.14417          1.5025
75.585                         0               0                0               0         0.247633         175.448         0.955716         82.9323
                               0               0                0               0         0.954991         82.9213         0.247743         175.429
                               0               0                0               0         0.140812        0.337835        0.0786795         20.3279
                               0               0                0               0        0.0785261         20.2005         0.140892        0.355701
75.63                          0               0                0               0         0.247399         173.998         0.956199         81.5367
                               0               0                0               0         0.955608         81.5282          0.24752         173.982
                               0               0                0               0         0.137366        -0.84694        0.0785625         18.1911
                               0               0                0               0        0.0784347          18.095         0.137444       -0.830294
75.675                         0               0                0               0         0.246942         172.499         0.956727         80.0967
                               0               0                0               0         0.956308          80.092         0.247072         172.487
                               0               0                0               0         0.133746        -2.06724        0.0783793         15.9745
                               0               0                0               0        0.0782727         15.9177         0.133823        -2.05227
75.72                          0               0                0               0         0.246271         170.955         0.957309         78.6147
                               0               0                0               0         0.957079         78.6149         0.246411         170.945
                               0               0                0               0         0.129949        -3.31974        0.0781271         13.6827
                               0               0                0               0         0.078035         13.6673         0.130025        -3.30677
75.765                         0               0                0               0         0.245399         169.367         0.957958         77.0936
                               0               0                0               0          0.95791          77.099         0.245548         169.361
                               0               0                0               0         0.125973        -4.60082        0.0778034         11.3202
                               0               0                0               0         0.077719         11.3433         0.126046           -4.59
75.81                          0               0                0               0         0.244337         167.739         0.958683          75.536
                               0               0                0               0         0.958789         75.5465         0.244492         167.735
                               0               0                0               0         0.121815        -5.90649         0.077406         8.89157
                               0               0                0               0        0.0773235         8.94595         0.121886         -5.8978
75.855                         0               0                0               0         0.243096         166.074         0.959492         73.9448
                               0               0                0               0         0.959708         73.9594         0.243255         166.072
                               0               0                0               0         0.117475        -7.23229        0.0769338         6.40133
                               0               0                0               0        0.0768492         6.47673         0.117546        -7.22552
75.9                           0               0                0               0         0.241687         164.374         0.960387         72.3229
                               0               0                0               0         0.960658         72.3402         0.241849         164.374
                               0               0                0               0         0.112955        -8.57316        0.0763861         3.85393
                               0               0                0               0        0.0762978         3.93837         0.113026        -8.56794
75.945                         0               0                0               0         0.240124         162.643         0.961369         70.6734
                               0               0                0               0         0.961634         70.6913         0.240286         162.643
                               0               0                0               0         0.108259        -9.92329        0.0757631         1.25374
                               0               0                0               0        0.0756718         1.33489          0.10833         -9.9191
75.99                          0               0                0               0         0.238417         160.882         0.962434         68.9992
                               0               0                0               0         0.962634         69.0153         0.238578         160.882
                               0               0                0               0         0.103391        -11.2759        0.0750659        -1.39492
                               0               0                0               0        0.0749739        -1.32852         0.103464        -11.2721
76.035                         0               0                0               0         0.236581         159.095         0.963573         67.3034
                               0               0                0               0         0.963655         67.3151         0.236738         159.094
                               0               0                0               0        0.0983581         -12.623        0.0742963        -4.08782
                               0               0                0               0        0.0742071        -4.04562        0.0984335        -12.6189
76.08                          0               0                0               0         0.234627         157.283         0.964772         65.5889
                               0               0                0               0         0.964698         65.5938         0.234781         157.281
                               0               0                0               0        0.0931695        -13.9549        0.0734568        -6.82078
                               0               0                0               0        0.0733744        -6.80936        0.0932477        -13.9499
76.125                         0               0                0               0         0.232569         155.451         0.966012         63.8587
                               0               0                0               0         0.965763          63.855         0.232719         155.447
                               0               0                0               0        0.0878356        -15.2596        0.0725505         -9.5897
                               0               0                0               0        0.0724785        -9.61218        0.0879168        -15.2533
76.17                          0               0                0               0          0.23042           153.6         0.967272         62.1156
                               0               0                0               0         0.966848         62.1022         0.230566         153.595
                               0               0                0               0        0.0823687        -16.5224        0.0715811        -12.3905
                               0               0                0               0        0.0715219        -12.4462         0.082453        -16.5144
76.215                         0               0                0               0         0.228195         151.733         0.968526         60.3624
                               0               0                0               0         0.967948         60.3394         0.228338         151.727
                               0               0                0               0        0.0767827         -17.724        0.0705525         -15.219
                               0               0                0               0        0.0705067        -15.3037        0.0768697        -17.7146
76.26                          0               0                0               0         0.225906         149.855         0.969744         58.6018
                               0               0                0               0         0.969054         58.5705         0.226045         149.848
                               0               0                0               0         0.071093        -18.8397        0.0694685        -18.0711
                               0               0                0               0         0.069435         -18.177        0.0711822        -18.8294
76.305                         0               0                0               0         0.223566          147.97         0.970893         56.8363
                               0               0                0               0          0.97015         56.7997         0.223702         147.962
                               0               0                0               0        0.0653167        -19.8357        0.0683331        -20.9426
                               0               0                0               0        0.0683088        -21.0592        0.0654072        -19.8261
76.35                          0               0                0               0         0.221186         146.082         0.971941         55.0684
                               0               0                0               0         0.971213         55.0305         0.221318         146.075
                               0               0                0               0        0.0594726        -20.6658        0.0671499        -23.8291
                               0               0                0               0        0.0671302        -23.9436        0.0595632        -20.6591
76.395                         0               0                0               0         0.218775         144.196         0.972851         53.3004
                               0               0                0               0         0.972211         53.2665         0.218902          144.19
                               0               0                0               0        0.0535817        -21.2639        0.0659217        -26.7259
                               0               0                0               0        0.0659011        -26.8245        0.0536712        -21.2637
76.44                          0               0                0               0         0.216341         142.319         0.973588         51.5344
                               0               0                0               0         0.973108         51.5104         0.216462         142.315
                               0               0                0               0        0.0476688        -21.5325        0.0646512        -29.6283
                               0               0                0               0        0.0646238         -29.697        0.0477555        -21.5436
76.485                         0               0                0               0         0.213887         140.457         0.974117         49.7725
                               0               0                0               0          0.97386         49.7643         0.214003         140.455
                               0               0                0               0        0.0417642        -21.3215          0.06334        -32.5313
                               0               0                0               0        0.0633008        -32.5569        0.0418463        -21.3508
76.53                          0               0                0               0         0.211417         138.617         0.974403         48.0169
                               0               0                0               0         0.974421         48.0295         0.211525         138.617
                               0               0                0               0        0.0359093        -20.3887        0.0619893        -35.4296
                               0               0                0               0        0.0619344        -35.4007        0.0359844        -20.4458
76.575                         0               0                0               0          0.20893         136.807         0.974416         46.2692
                               0               0                0               0         0.974745         46.3064         0.209031         136.808
                               0               0                0               0        0.0301662        -18.3216        0.0605997        -38.3179
                               0               0                0               0        0.0605273        -38.2256        0.0302312        -18.4203
76.62                          0               0                0               0         0.206424         135.033         0.974125         44.5314
                               0               0                0               0         0.974785         44.5951          0.20652         135.034
                               0               0                0               0        0.0246413        -14.3773        0.0591715        -41.1902
                               0               0                0               0        0.0590823        -41.0293        0.0246916        -14.5375
76.665                         0               0                0               0         0.203897         133.302         0.973505         42.8051
                               0               0                0               0         0.974498         42.8949          0.20399         133.301
                               0               0                0               0        0.0195396        -7.16434        0.0577052        -44.0408
                               0               0                0               0        0.0576021          -43.81        0.0195676        -7.41271
76.71                          0               0                0               0         0.201349         131.621         0.972535          41.092
                               0               0                0               0         0.973842         41.2052          0.20144         131.617
                               0               0                0               0        0.0152945         5.77814        0.0562014        -46.8634
                               0               0                0               0        0.0560895        -46.5658        0.0152883         5.42577
76.755                         0               0                0               0          0.19878         129.994         0.971197         39.3936
                               0               0                0               0          0.97278         39.5252         0.198871         129.985
                               0               0                0               0          0.01277         26.9406        0.0546615        -49.6518
                               0               0                0               0        0.0545475        -49.2952        0.0127166         26.5644
76.8                           0               0                0               0         0.196193         128.428          0.96948         37.7112
                               0               0                0               0         0.971283         37.8548         0.196287         128.412
                               0               0                0               0        0.0129649         52.3961        0.0530882        -52.3994
                               0               0                0               0        0.0529791         -51.996         0.012872         52.1957
76.845                         0               0                0               0         0.193595         126.926         0.967378         36.0464
                               0               0                0               0         0.969324         36.1942         0.193693         126.903
                               0               0                0               0        0.0157208         72.1574        0.0514854        -55.0999
                               0               0                0               0        0.0513876        -54.6658         0.015615         72.1472
76.89                          0               0                0               0         0.190997         125.491         0.964891         34.4001
                               0               0                0               0         0.966891         34.5445         0.191099         125.459
                               0               0                0               0        0.0199426         83.9081        0.0498585        -57.7472
                               0               0                0               0        0.0497768        -57.3014        0.0198388         83.9799
76.935                         0               0                0               0         0.188413         124.125         0.962025         32.7735
                               0               0                0               0          0.96398         32.9073         0.188518         124.085
                               0               0                0               0        0.0248297         90.4151        0.0482146        -60.3356
                               0               0                0               0        0.0481511        -59.8987        0.0247315         90.5068
76.98                          0               0                0               0          0.18586         122.829         0.958792         31.1675
                               0               0                0               0         0.960603         31.2849         0.185967         122.782
                               0               0                0               0        0.0299933         93.9507        0.0465621        -62.8605
                               0               0                0               0        0.0465161         -62.453        0.0299002         94.0386
77.025                         0               0                0               0         0.183357         121.603          0.95521         29.5828
                               0               0                0               0          0.95679         29.6799         0.183463          121.55
                               0               0                0               0        0.0352463         95.7701        0.0449104        -65.3185
                               0               0                0               0        0.0448783        -64.9588        0.0351569         95.8465
77.07                          0               0                0               0         0.180926         120.444         0.951304           28.02
                               0               0                0               0         0.952583         28.0949         0.181028         120.387
                               0               0                0               0        0.0404892         96.5482        0.0432696        -67.7079
                               0               0                0               0        0.0432455        -67.4105        0.0404019         96.6114
77.115                         0               0                0               0         0.178585          119.35         0.947103         26.4796
                               0               0                0               0         0.948037         26.5321         0.178681         119.291
                               0               0                0               0         0.045663          96.665        0.0416498        -70.0293
                               0               0                0               0         0.041627        -69.8031        0.0455764          96.716
77.16                          0               0                0               0         0.176353         118.315         0.942642         24.9617
                               0               0                0               0         0.943218         24.9934         0.176444         118.259
                               0               0                0               0        0.0507297         96.3477        0.0400606        -72.2855
                               0               0                0               0        0.0400326        -72.1333        0.0506427         96.3884
77.205                         0               0                0               0         0.174246         117.334         0.937959         23.4663