! TOUCHSTONE file generated by CST MICROWAVE STUDIO
! Date and time: Sun Jun 20 22:37:44 2021
! Project name: HIPS_d_sweep.cst
! Parameters = {fmax=120; fmin=75; b=0.46; d=22.6; a=0.63; phi=0; theta=0}
! Header version: 2018
! Port assignment regex: !\s*Touchstone port\s*([0-9]+)\s*=\s*(CST MWS port|CST DS port)\s*([0-9]+|Zmin|Zmax)\s*\(\"(.*)\"\)(\s*mode\s*([0-9]+))?.*
! Touchstone port assignment:
! Touchstone port 1 = CST MWS port Zmin ("") mode 1
! Touchstone port 2 = CST MWS port Zmin ("") mode 2
! Touchstone port 3 = CST MWS port Zmax ("") mode 1
! Touchstone port 4 = CST MWS port Zmax ("") mode 2
! S-Parameters are not renormalized. Unphysical impedance of 0 will be written to the file.
# GHz S MA R 0
75                             0               0                0               0       0.00959681         -149.47         0.987046         87.7168
                               0               0                0               0         0.987051         87.6872        0.0097782        -148.734
                               0               0                0               0         0.156597        -2.25442        0.0338078       -0.229272
                               0               0                0               0        0.0338371       -0.209509         0.156591        -2.21579
75.045                         0               0                0               0        0.0129641        -159.309         0.987372         86.9734
                               0               0                0               0         0.987571         86.9423         0.013165        -159.269
                               0               0                0               0         0.154585        -2.95402        0.0342449       0.0142632
                               0               0                0               0        0.0342889       0.0465466         0.154564        -2.91506
75.09                          0               0                0               0        0.0162353        -165.219         0.987682          86.152
                               0               0                0               0         0.987966         86.1205        0.0164631        -165.295
                               0               0                0               0          0.15234        -3.72863        0.0346017       0.0284976
                               0               0                0               0        0.0346521       0.0671626         0.152312        -3.68936
75.135                         0               0                0               0        0.0192706        -169.319         0.987994         85.2535
                               0               0                0               0         0.988284         85.2222        0.0195045        -169.314
                               0               0                0               0          0.14986        -4.57937        0.0348784       -0.175858
                               0               0                0               0        0.0349297       -0.133839          0.14983        -4.53976
75.18                          0               0                0               0        0.0220008        -172.473          0.98832         84.2791
                               0               0                0               0         0.988568          84.248        0.0222194        -172.334
                               0               0                0               0         0.147143        -5.50691        0.0350746       -0.588274
                               0               0                0               0        0.0351233       -0.543797         0.147115        -5.46693
75.225                         0               0                0               0        0.0243857        -175.087         0.988671         83.2299
                               0               0                0               0         0.988851         83.1991        0.0245747        -174.819
                               0               0                0               0         0.144186         -6.5115         0.035189        -1.19845
                               0               0                0               0        0.0352334        -1.15109         0.144162        -6.47115
75.27                          0               0                0               0        0.0264016        -177.382         0.989054         82.1074
                               0               0                0               0          0.98916         82.0768         0.026555        -177.009
                               0               0                0               0         0.140984          -7.593        0.0352196        -1.99636
                               0               0                0               0        0.0352592        -1.94498         0.140965        -7.55228
75.315                         0               0                0               0         0.028036        -179.483         0.989472          80.913
                               0               0                0               0         0.989514         80.8825        0.0281551        -179.036
                               0               0                0               0         0.137535        -8.75088         0.035164        -2.97217
                               0               0                0               0        0.0351991        -2.91546          0.13752        -8.70979
75.36                          0               0                0               0        0.0292853          178.53         0.989928         79.6485
                               0               0                0               0         0.989925         79.6181        0.0293766         179.022
                               0               0                0               0         0.133832        -9.98421        0.0350195        -4.11628
                               0               0                0               0         0.035051        -4.05308          0.13382        -9.94275
75.405                         0               0                0               0        0.0301532         176.605         0.990421         78.3157
                               0               0                0               0         0.990398         78.2855        0.0302257         177.119
                               0               0                0               0         0.129873        -11.2917        0.0347832        -5.41924
                               0               0                0               0        0.0348119        -5.34879         0.129862        -11.2498
75.45                          0               0                0               0        0.0306484         174.707          0.99095         76.9165
                               0               0                0               0         0.990932         76.8866         0.030712         175.227
                               0               0                0               0         0.125652        -12.6716         0.034452         -6.8717
                               0               0                0               0         0.034479        -6.79379         0.125641        -12.6293
75.495                         0               0                0               0        0.0307841         172.811         0.991509         75.4531
                               0               0                0               0         0.991521         75.4238        0.0308473         173.329
                               0               0                0               0         0.121166         -14.122        0.0340232         -8.4644
                               0               0                0               0        0.0340492        -8.37939         0.121153         -14.079
75.54                          0               0                0               0        0.0305763         170.901         0.992095         73.9277
                               0               0                0               0         0.992156         73.8993        0.0306451         171.416
                               0               0                0               0         0.116413        -15.6403        0.0334942        -10.1881
                               0               0                0               0        0.0335196        -10.0969         0.116398        -15.5964
75.585                         0               0                0               0        0.0300429         168.966         0.992702          72.343
                               0               0                0               0         0.992821         72.3156        0.0301201         169.484
                               0               0                0               0         0.111393        -17.2237        0.0328629        -12.0335
                               0               0                0               0        0.0328878        -11.9376         0.111374        -17.1787
75.63                          0               0                0               0        0.0292026             167         0.993321         70.7014
                               0               0                0               0         0.993503         70.6753        0.0292876         167.531
                               0               0                0               0         0.106105        -18.8692        0.0321279        -13.9913
                               0               0                0               0        0.0321518        -13.8924         0.106084        -18.8229
75.675                         0               0                0               0        0.0280744         164.998         0.993948         69.0059
                               0               0                0               0         0.994183         68.9812        0.0281634         165.559
                               0               0                0               0         0.100552        -20.5733        0.0312883        -16.0521
                               0               0                0               0        0.0313105        -15.9524         0.100529        -20.5254
75.72                          0               0                0               0        0.0266766         162.961         0.994574         67.2596
                               0               0                0               0         0.994846         67.2363        0.0267635         163.573
                               0               0                0               0        0.0947385        -22.3325        0.0303441        -18.2066
                               0               0                0               0        0.0303635        -18.1081        0.0947153        -22.2826
75.765                         0               0                0               0        0.0250265         160.889         0.995192         65.4655
                               0               0                0               0          0.99548         65.4438         0.025104         161.576
                               0               0                0               0        0.0886712         -24.143        0.0292961        -20.4449
                               0               0                0               0        0.0293117        -20.3499        0.0886496         -24.091
75.81                          0               0                0               0        0.0231405         158.786         0.995795         63.6271
                               0               0                0               0         0.996072          63.607        0.0232011         159.578
                               0               0                0               0        0.0823586         -26.001         0.028146        -22.7573
                               0               0                0               0        0.0281567         -22.668        0.0823405        -25.9466
75.855                         0               0                0               0        0.0210337         156.658         0.996378          61.748
                               0               0                0               0         0.996617         61.7294        0.0210712         157.588
                               0               0                0               0        0.0758116        -27.9028        0.0268963        -25.1337
                               0               0                0               0        0.0269015        -25.0525        0.0757987        -27.8459
75.9                           0               0                0               0        0.0187198         154.511         0.996935         59.8319
                               0               0                0               0         0.997116         59.8149         0.018731         155.623
                               0               0                0               0        0.0690427        -29.8452        0.0255507        -27.5633
                               0               0                0               0        0.0255501        -27.4929        0.0690363        -29.7852
75.945                         0               0                0               0        0.0162122         152.355          0.99746         57.8825
                               0               0                0               0         0.997572         57.8673        0.0161977         153.707
                               0               0                0               0        0.0620667        -31.8251        0.0241133        -30.0347
                               0               0                0               0        0.0241073        -29.9784        0.0620671        -31.7614
75.99                          0               0                0               0        0.0135238         150.199         0.997948         55.9038
                               0               0                0               0         0.997995         55.8906         0.013489         151.888
                               0               0                0               0        0.0548997        -33.8404        0.0225895        -32.5357
                               0               0                0               0        0.0225791        -32.4978        0.0549064        -33.7716
76.035                         0               0                0               0        0.0106687         148.059         0.998396         53.8998
                               0               0                0               0         0.998397         53.8888         0.010624         150.263
                               0               0                0               0        0.0475596        -35.8903        0.0209853        -35.0519
                               0               0                0               0        0.0209723        -35.0386        0.0475705        -35.8141
76.08                          0               0                0               0        0.0076626         145.964         0.998798         51.8744
                               0               0                0               0         0.998791         51.8658       0.00762348         149.094
                               0               0                0               0        0.0400654        -37.9766        0.0193074        -37.5667
                               0               0                0               0        0.0192941        -37.5867        0.0400776        -37.8885
76.125                         0               0                0               0       0.00452427         144.013          0.99915         49.8315
                               0               0                0               0         0.999184         49.8253       0.00451251         149.391
                               0               0                0               0        0.0324377        -40.1056        0.0175636        -40.0594
                               0               0                0               0        0.0175525         -40.125         0.032447        -39.9978
76.17                          0               0                0               0       0.00127693         143.341         0.999448         47.7751
                               0               0                0               0         0.999577         47.7709       0.00135908         161.809
                               0               0                0               0        0.0246981        -42.2955        0.0157621        -42.5027
                               0               0                0               0        0.0157558        -42.6311        0.0246999        -42.1529
76.215                         0               0                0               0       0.00205495        -42.3422         0.999685         45.7086
                               0               0                0               0         0.999958          45.706        0.0020734         -54.683
                               0               0                0               0        0.0168695        -44.6027        0.0139121        -44.8585
                               0               0                0               0        0.0139127        -45.0737        0.0168593        -44.3906
76.26                          0               0                0               0       0.00543665        -43.7689         0.999857         43.6356
                               0               0                0               0                1         43.6335       0.00537221        -48.6667
                               0               0                0               0       0.00897651        -47.2891        0.0120233         -47.069
                               0               0                0               0        0.0120323        -47.4042       0.00895078        -46.8864
76.305                         0               0                0               0       0.00883714        -45.8758         0.999953         41.5591
                               0               0                0               0                1         41.5567       0.00872009        -49.0026
                               0               0                0               0       0.00105779        -58.5406        0.0101067         -49.039
                               0               0                0               0        0.0101239        -49.5405       0.00100831        -55.4238
76.35                          0               0                0               0        0.0122236        -48.1544         0.999966          39.482
                               0               0                0               0                1         39.4783        0.0120708        -50.4735
                               0               0                0               0       0.00690966         131.208        0.0081741        -50.5921
                               0               0                0               0       0.00819766        -51.3273       0.00696131         130.699
76.395                         0               0                0               0        0.0155669        -50.5459         0.999884         37.4068
                               0               0                0               0                1         37.4015        0.0153988        -52.3665
                               0               0                0               0        0.0148433         128.205       0.00623974        -51.3492
                               0               0                0               0         0.006265        -52.4247        0.0149009         127.993
76.44                          0               0                0               0        0.0188446        -53.0304         0.999695         35.3359
                               0               0                0               0                1         35.3293         0.018684         -54.472
                               0               0                0               0        0.0227387          125.78       0.00432312        -50.2926
                               0               0                0               0       0.00434186        -51.9093        0.0227899         125.664
76.485                         0               0                0               0        0.0220429        -55.5825         0.999391         33.2716
                               0               0                0               0         0.999808          33.265        0.0219121        -56.6965
                               0               0                0               0          0.03057         123.487       0.00246836        -43.4518
                               0               0                0               0       0.00246495        -46.1155        0.0306001          123.42
76.53                          0               0                0               0        0.0251581        -58.1549         0.998963         31.2165
                               0               0                0               0         0.999049         31.2124        0.0250762        -58.9762
                               0               0                0               0        0.0383147         121.255      0.000991485       -0.700336
                               0               0                0               0      0.000921166        -4.12632        0.0383115         121.217
76.575                         0               0                0               0        0.0281966        -60.6649         0.998418         29.1748
                               0               0                0               0         0.998212         29.1753        0.0281801         -61.243
                               0               0                0               0        0.0459567          119.08       0.00174594         78.0797
                               0               0                0               0       0.00171803         79.5635        0.0459185         119.057
76.62                          0               0                0               0        0.0311707         -62.985         0.997784         27.1528
                               0               0                0               0         0.997595         27.1583        0.0312386        -63.4051
                               0               0                0               0        0.0534896         116.983       0.00344707         91.7051
                               0               0                0               0       0.00346878          91.953        0.0534394         116.969
76.665                         0               0                0               0        0.0340822        -64.9657          0.99714          25.162
                               0               0                0               0         0.997639         25.1657        0.0342649        -65.3412
                               0               0                0               0        0.0609204         115.002       0.00520431         94.3978
                               0               0                0               0        0.0052568         94.1613        0.0609152         115.001
76.71                          0               0                0               0        0.0368858        -66.5752         0.996702         23.2187
                               0               0                0               0         0.998594         23.1994          0.03722        -66.9665
                               0               0                0               0        0.0682574         113.162       0.00695791         94.3045
                               0               0                0               0       0.00702023         94.0407         0.068356         113.194
76.755                         0               0                0               0        0.0394838        -68.1865         0.996956         21.3222
                               0               0                0               0          0.99965         21.2556        0.0399415        -68.4878
                               0               0                0               0        0.0754584         111.384        0.0087182          92.978
                               0               0                0               0       0.00875511         92.9941        0.0756136         111.455
76.8                           0               0                0               0        0.0418401        -70.5311         0.997448          19.384
                               0               0                0               0         0.998867         19.3291        0.0422894        -70.6209
                               0               0                0               0        0.0823834          109.41         0.010536         91.1734
                               0               0                0               0        0.0104608         91.0932        0.0824662         109.468
76.845                         0               0                0               0        0.0440241        -73.9265         0.994656         17.4052
                               0               0                0               0         0.995215         17.4211        0.0444116        -73.8935
                               0               0                0               0        0.0889027         107.047        0.0119705         89.3508
                               0               0                0               0        0.0120908              88        0.0889141         107.075
76.89                          0               0                0               0        0.0460798        -77.9928         0.988895         15.5202
                               0               0                0               0         0.989446         15.5365        0.0464587        -77.9641
                               0               0                0               0        0.0950135         104.438         0.013454         85.0678
                               0               0                0               0        0.0135849         83.9343        0.0950222         104.466
76.935                         0               0                0               0        0.0480091        -82.2411         0.982108          13.686
                               0               0                0               0         0.982676         13.6789        0.0484032        -82.2462
                               0               0                0               0         0.100777         101.815           0.0149         81.0231
                               0               0                0               0        0.0149601         79.6922         0.100803         101.852
76.98                          0               0                0               0        0.0498135        -86.4128         0.974996         11.8636
                               0               0                0               0          0.97556         11.8503        0.0502078        -86.4287
                               0               0                0               0         0.106241         99.2901        0.0162001         77.0415
                               0               0                0               0        0.0162494         75.7663         0.106271         99.3294
77.025                         0               0                0               0        0.0514984        -90.4287          0.96782         10.0528
                               0               0                0               0         0.968366         10.0514        0.0518733        -90.4305
                               0               0                0               0         0.111429         96.8813        0.0173628          73.199
                               0               0                0               0        0.0174549         72.2098         0.111449         96.9165
77.07                          0               0                0               0        0.0530677        -94.2842         0.960669         8.26319
                               0               0                0               0         0.961189         8.28245        0.0534122        -94.2612
                               0               0                0               0          0.11635         94.5796        0.0184089           69.56
                               0               0                0               0        0.0185689         68.9321         0.116352         94.6087
77.115                         0               0                0               0        0.0545241        -97.9957         0.953566         6.50285
                               0               0                0               0         0.954065         6.54333        0.0548347        -97.9491
                               0               0                0               0          0.12101         92.3722        0.0193572         66.1466
                               0               0                0               0        0.0195864         65.8513         0.120993         92.3958
77.16                          0               0                0               0        0.0558691        -101.581         0.946522         4.77592
                               0               0                0               0         0.947013         4.83361        0.0561473        -101.519
                               0               0                0               0         0.125412         90.2491          0.02022          62.954
                               0               0                0               0        0.0205061         62.9184          0.12538         90.2689
77.205                         0               0                0               0        0.0571047        -105.056         0.939556          3.0837