! TOUCHSTONE file generated by CST MICROWAVE STUDIO
! Date and time: Sun Jun 20 22:36:59 2021
! Project name: HIPS_d_sweep.cst
! Parameters = {fmax=120; fmin=75; b=0.46; d=17.65; a=0.63; phi=0; theta=0}
! Header version: 2018
! Port assignment regex: !\s*Touchstone port\s*([0-9]+)\s*=\s*(CST MWS port|CST DS port)\s*([0-9]+|Zmin|Zmax)\s*\(\"(.*)\"\)(\s*mode\s*([0-9]+))?.*
! Touchstone port assignment:
! Touchstone port 1 = CST MWS port Zmin ("") mode 1
! Touchstone port 2 = CST MWS port Zmin ("") mode 2
! Touchstone port 3 = CST MWS port Zmax ("") mode 1
! Touchstone port 4 = CST MWS port Zmax ("") mode 2
! S-Parameters are not renormalized. Unphysical impedance of 0 will be written to the file.
# GHz S MA R 0
75                             0               0                0               0         0.331456         20.9911         0.921083        -71.3978
                               0               0                0               0         0.921125        -71.3998         0.331478         20.9989
                               0               0                0               0         0.183213          25.809        0.0902595          65.172
                               0               0                0               0        0.0902327         65.2065         0.183175         25.7653
75.045                         0               0                0               0         0.334782         20.2532         0.922483        -71.9009
                               0               0                0               0         0.922192        -71.9383         0.334951         20.1233
                               0               0                0               0         0.182145         25.3923        0.0909242         64.2971
                               0               0                0               0        0.0908899         64.3339         0.182121         25.3481
75.09                          0               0                0               0         0.337809         19.5125         0.922881        -72.4865
                               0               0                0               0         0.922488        -72.5474          0.33823         19.2886
                               0               0                0               0         0.180982         24.9269        0.0915327         63.3454
                               0               0                0               0        0.0914925         63.3829         0.180966         24.8826
75.135                         0               0                0               0         0.340506          18.761         0.922548        -73.1582
                               0               0                0               0         0.922193        -73.2308         0.341215          18.489
                               0               0                0               0         0.179732         24.4121        0.0920874         62.3115
                               0               0                0               0        0.0920432         62.3486          0.17972         24.3678
75.18                          0               0                0               0         0.342852         17.9903         0.921733        -73.9154
                               0               0                0               0         0.921481        -73.9893         0.343809         17.7138
                               0               0                0               0         0.178401         23.8477         0.092592         61.1908
                               0               0                0               0        0.0925458         61.2265          0.17839         23.8034
75.225                         0               0                0               0          0.34484         17.1919         0.920648        -74.7548
                               0               0                0               0         0.920512        -74.8216         0.345934          16.947
                               0               0                0               0         0.176995         23.2339        0.0930505         59.9795
                               0               0                0               0        0.0930045         60.0133         0.176981         23.1895
75.27                          0               0                0               0          0.34647         16.3575         0.919462        -75.6708
                               0               0                0               0         0.919422        -75.7249         0.347544         16.1693
                               0               0                0               0         0.175518         22.5715        0.0934676         58.6747
                               0               0                0               0        0.0934238         58.7065         0.175501         22.5267
75.315                         0               0                0               0         0.347758           15.48         0.918306        -76.6569
                               0               0                0               0         0.918324        -76.6951         0.348636         15.3606
                               0               0                0               0         0.173973         21.8612        0.0938482         57.2744
                               0               0                0               0        0.0938084         57.3043          0.17395         21.8159
75.36                          0               0                0               0         0.348725         14.5534         0.917272        -77.7064
                               0               0                0               0         0.917305        -77.7273         0.349245         14.5024
                               0               0                0               0         0.172361         21.1043        0.0941971         55.7779
                               0               0                0               0        0.0941629         55.8063         0.172331         21.0583
75.405                         0               0                0               0         0.349402         13.5732          0.91642        -78.8125
                               0               0                0               0          0.91643        -78.8165         0.349441         13.5801
                               0               0                0               0         0.170681         20.3022        0.0945185         54.1853
                               0               0                0               0        0.0944913         54.2127         0.170643         20.2554
75.45                          0               0                0               0         0.349821         12.5367         0.915787        -79.9687
                               0               0                0               0         0.915742        -79.9575         0.349313         12.5849
                               0               0                0               0         0.168931         19.4563        0.0948161         52.4977
                               0               0                0               0        0.0947967          52.525         0.168885         19.4085
75.495                         0               0                0               0         0.350017         11.4426          0.91539        -81.1695
                               0               0                0               0         0.915269        -81.1454         0.348953         11.5131
                               0               0                0               0         0.167109         18.5683        0.0950928         50.7173
                               0               0                0               0        0.0950817         50.7451         0.167055         18.5196
75.54                          0               0                0               0         0.350023          10.291         0.915231        -82.4097
                               0               0                0               0          0.91502        -82.3754         0.348445         10.3658
                               0               0                0               0         0.165209           17.64        0.0953503         48.8469
                               0               0                0               0        0.0953477         48.8761         0.165148         17.5902
75.585                         0               0                0               0         0.349868         9.08327           0.9153        -83.6847
                               0               0                0               0         0.914998        -83.6432         0.347859          9.1478
                               0               0                0               0         0.163228         16.6733        0.0955892         46.8902
                               0               0                0               0        0.0955949         46.9215         0.163161         16.6225
75.63                          0               0                0               0         0.349579         7.82191         0.915583        -84.9909
                               0               0                0               0         0.915193        -84.9452         0.347244         7.86563
                               0               0                0               0         0.161159           15.67         0.095809         44.8515
                               0               0                0               0        0.0958225         44.8855         0.161086         15.6184
75.675                         0               0                0               0         0.349177         6.51001         0.916057         -86.325
                               0               0                0               0          0.91559        -86.2778         0.346632         6.52697
                               0               0                0               0         0.158996         14.6325        0.0960082         42.7353
                               0               0                0               0        0.0960288         42.7727         0.158919         14.5801
75.72                          0               0                0               0         0.348678         5.15122         0.916701        -87.6842
                               0               0                0               0          0.91617        -87.6381          0.34604         5.13951
                               0               0                0               0         0.156733         13.5631        0.0961841         40.5471
                               0               0                0               0         0.096211         40.5881         0.156653         13.5099
75.765                         0               0                0               0         0.348094         3.74947         0.917487        -89.0663
                               0               0                0               0          0.91691        -89.0236         0.345474         3.71049
                               0               0                0               0         0.154364         12.4643        0.0963334         38.2922
                               0               0                0               0        0.0963655          38.337         0.154281         12.4105
75.81                          0               0                0               0         0.347431         2.30884          0.91839        -90.4696
                               0               0                0               0         0.917786         -90.432         0.344928         2.24646
                               0               0                0               0         0.151882         11.3388         0.096452         35.9764
                               0               0                0               0        0.0964882          36.025         0.151798         11.2846
75.855                         0               0                0               0         0.346694        0.833415         0.919384        -91.8924
                               0               0                0               0         0.918771        -91.8615         0.344391        0.753134
                               0               0                0               0         0.149281         10.1898        0.0965352         33.6055
                               0               0                0               0        0.0965743         33.6577         0.149197         10.1352
75.9                           0               0                0               0         0.345884       -0.672828         0.920443        -93.3336
                               0               0                0               0         0.919841        -93.3105          0.34385       -0.764546
                               0               0                0               0         0.146555         9.02071        0.0965784         31.1856
                               0               0                0               0        0.0966193         31.2411         0.146474         8.96575
75.945                         0               0                0               0         0.344999        -2.20607         0.921544        -94.7923
                               0               0                0               0          0.92097        -94.7777         0.343287        -2.30234
                               0               0                0               0         0.143701         7.83517        0.0965769         28.7227
                               0               0                0               0        0.0966184         28.7809         0.143622         7.77988
75.99                          0               0                0               0         0.344035        -3.76272         0.922666        -96.2677
                               0               0                0               0         0.922134         -96.262         0.342682        -3.85664
                               0               0                0               0         0.140714         6.63735        0.0965263         26.2227
                               0               0                0               0        0.0965672         26.2828         0.140639         6.58169
76.035                         0               0                0               0         0.342989        -5.33944         0.923788        -97.7594
                               0               0                0               0         0.923313        -97.7624         0.342015        -5.42433
                               0               0                0               0         0.137593         5.43179        0.0964227         23.6914
                               0               0                0               0         0.096462         23.7528         0.137522         5.37564
76.08                          0               0                0               0         0.341857        -6.93323         0.924896        -99.2669
                               0               0                0               0         0.924488        -99.2782         0.341266         -7.0028
                               0               0                0               0         0.134335         4.22344        0.0962632         21.1346
                               0               0                0               0        0.0962997         21.1961          0.13427         4.16664
76.125                         0               0                0               0         0.340633        -8.54139         0.925978         -100.79
                               0               0                0               0         0.925644        -100.809         0.340414        -8.58992
                               0               0                0               0         0.130942         3.01766        0.0960457         18.5575
                               0               0                0               0        0.0960783         18.6183         0.130883         2.95998
76.17                          0               0                0               0         0.339315        -10.1616         0.927031        -102.329
                               0               0                0               0         0.926771        -102.354         0.339437        -10.1841
                               0               0                0               0         0.127416         1.82019        0.0957693         15.9654
                               0               0                0               0        0.0957969         16.0244         0.127364         1.76135
76.215                         0               0                0               0           0.3379         -11.792         0.928055        -103.882
                               0               0                0               0         0.927867        -103.912         0.338313        -11.7847
                               0               0                0               0         0.123762        0.637109        0.0954343         13.3627
                               0               0                0               0        0.0954558         13.4188         0.123716        0.576776
76.26                          0               0                0               0         0.336389        -13.4313         0.929062         -105.45
                               0               0                0               0         0.928936        -105.484         0.337021        -13.3922
                               0               0                0               0         0.119986       -0.525252        0.0950424         10.7535
                               0               0                0               0        0.0950568         10.8058         0.119946       -0.587452
76.305                         0               0                0               0         0.334786        -15.0783         0.930072        -107.032
                               0               0                0               0         0.929989        -107.067         0.335546        -15.0086
                               0               0                0               0         0.116096        -1.66044        0.0945965         8.14134
                               0               0                0               0         0.094603          8.1889         0.116061        -1.72489
76.35                          0               0                0               0         0.333099        -16.7328         0.931111        -108.626
                               0               0                0               0         0.931048        -108.661         0.333883        -16.6387
                               0               0                0               0         0.112102        -2.76201        0.0941007         5.52883
                               0               0                0               0        0.0940985         5.57108         0.112072        -2.82906
76.395                         0               0                0               0         0.331345        -18.3943         0.932211        -110.228
                               0               0                0               0          0.93214        -110.262         0.332049        -18.2888
                               0               0                0               0         0.108015        -3.82363        0.0935599         2.91801
                               0               0                0               0        0.0935486         2.95463         0.107989        -3.89361
76.44                          0               0                0               0         0.329549        -20.0626         0.933396        -111.835
                               0               0                0               0         0.933291        -111.867         0.330104        -19.9653
                               0               0                0               0         0.103849        -4.83919        0.0929795        0.310213
                               0               0                0               0        0.0929591        0.341307         0.103825        -4.91234
76.485                         0               0                0               0         0.327745        -21.7363         0.934674         -113.44
                               0               0                0               0         0.934515        -113.471         0.328151        -21.6685
                               0               0                0               0        0.0996162        -5.80257        0.0923645         -2.2937
                               0               0                0               0        0.0923357        -2.26754        0.0995937        -5.87907
76.53                          0               0                0               0         0.325972        -23.4117         0.936016        -115.036
                               0               0                0               0         0.935803        -115.068         0.326305        -23.3854
                               0               0                0               0         0.095329        -6.70711        0.0917184        -4.89296
                               0               0                0               0        0.0916824         -4.8706        0.0953071        -6.78711
76.575                         0               0                0               0         0.324269        -25.0822         0.937349        -116.617
                               0               0                0               0         0.937104         -116.65         0.324624        -25.0901
                               0               0                0               0        0.0909987        -7.54422         0.091042        -7.48627
                               0               0                0               0        0.0910009        -7.46603        0.0909767        -7.62787
76.62                          0               0                0               0         0.322656        -26.7378         0.938562        -118.179
                               0               0                0               0         0.938323        -118.213         0.323069        -26.7552
                               0               0                0               0        0.0866341        -8.30089        0.0903316         -10.071
                               0               0                0               0        0.0902879        -10.0508         0.086612        -8.38848
76.665                         0               0                0               0          0.32112         -28.367         0.939522        -119.721
                               0               0                0               0         0.939333        -119.755         0.321538        -28.3655
                               0               0                0               0         0.082242        -8.95595        0.0895774        -12.6422
                               0               0                0               0        0.0895334        -12.6201        0.0822199        -9.04796
76.71                          0               0                0               0         0.319608        -29.9609         0.940105        -121.243
                               0               0                0               0         0.940003        -121.278         0.319933        -29.9199
                               0               0                0               0        0.0778281        -9.47556        0.0887629        -15.1925
                               0               0                0               0        0.0887203         -15.167        0.0778058        -9.57268
76.755                         0               0                0               0         0.318036        -31.5155          0.94022        -122.752
                               0               0                0               0         0.940221        -122.785         0.318207        -31.4261
                               0               0                0               0        0.0733996        -9.80955        0.0878657        -17.7119
                               0               0                0               0        0.0878251        -17.6824        0.0733769        -9.91253
76.8                           0               0                0               0         0.316307        -33.0318          0.93981        -124.253
                               0               0                0               0         0.939908        -124.285         0.316353        -32.8942
                               0               0                0               0        0.0689709        -9.89098        0.0868618        -20.1897
                               0               0                0               0        0.0868227         -20.157        0.0689467        -10.0003
76.845                         0               0                0               0          0.31434        -34.5113         0.938841        -125.751
                               0               0                0               0         0.939008        -125.783         0.314391        -34.3368
                               0               0                0               0        0.0645684        -9.64035        0.0857322        -22.6162
                               0               0                0               0        0.0856934        -22.5819         0.064541        -9.75599
76.89                          0               0                0               0         0.312086        -35.9505         0.937281        -127.252
                               0               0                0               0         0.937463        -127.284         0.312314        -35.7724
                               0               0                0               0        0.0602341        -8.97365        0.0844697        -24.9843
                               0               0                0               0        0.0844301        -24.9504        0.0602019        -9.09506
76.935                         0               0                0               0         0.309557        -37.3397         0.935074        -128.754
                               0               0                0               0         0.935212        -128.788         0.309964        -37.2186
                               0               0                0               0         0.056025        -7.81059        0.0830822        -27.2909
                               0               0                0               0        0.0830415        -27.2587        0.0559866        -7.93686
76.98                          0               0                0               0         0.306834        -38.6682         0.932158        -130.254
                               0               0                0               0         0.932219        -130.286         0.307055         -38.624
                               0               0                0               0        0.0520081        -6.08012         0.081592        -29.5359
                               0               0                0               0        0.0815507        -29.5056        0.0519627        -6.21023
77.025                         0               0                0               0         0.304045        -39.9336         0.928527         -131.74
                               0               0                0               0         0.928547        -131.767         0.303975        -39.8936
                               0               0                0               0        0.0482546        -3.72296        0.0800294        -31.7218
                               0               0                0               0        0.0799889        -31.6928        0.0482018        -3.85585
77.07                          0               0                0               0         0.301302        -41.1439         0.924334        -133.196
                               0               0                0               0         0.924385        -133.219         0.301226        -41.0838
                               0               0                0               0        0.0448353       -0.694286        0.0784267        -33.8528
                               0               0                0               0        0.0783886         -33.824        0.0447746       -0.828654
77.115                         0               0                0               0         0.298668        -42.3121         0.919867        -134.615
                               0               0                0               0         0.919981         -134.64          0.29871        -42.2534
                               0               0                0               0        0.0418172         3.02988        0.0768124         -35.934
                               0               0                0               0        0.0767781        -35.9045        0.0417483         2.89607
77.16                          0               0                0               0         0.296163        -43.4503         0.915384        -136.002
                               0               0                0               0         0.915529        -136.031         0.296299        -43.4084
                               0               0                0               0        0.0392621         7.44066        0.0752089        -37.9711
                               0               0                0               0        0.0751795        -37.9401        0.0391848         7.31057
77.205                         0               0                0               0         0.293782        -44.5664         0.910999        -137.367