! TOUCHSTONE file generated by CST MICROWAVE STUDIO
! Date and time: Sun Jun 20 22:37:14 2021
! Project name: HIPS_d_sweep.cst
! Parameters = {fmax=120; fmin=75; b=0.46; d=19.6; a=0.63; phi=0; theta=0}
! Header version: 2018
! Port assignment regex: !\s*Touchstone port\s*([0-9]+)\s*=\s*(CST MWS port|CST DS port)\s*([0-9]+|Zmin|Zmax)\s*\(\"(.*)\"\)(\s*mode\s*([0-9]+))?.*
! Touchstone port assignment:
! Touchstone port 1 = CST MWS port Zmin ("") mode 1
! Touchstone port 2 = CST MWS port Zmin ("") mode 2
! Touchstone port 3 = CST MWS port Zmax ("") mode 1
! Touchstone port 4 = CST MWS port Zmax ("") mode 2
! S-Parameters are not renormalized. Unphysical impedance of 0 will be written to the file.
# GHz S MA R 0
75                             0               0                0               0         0.217232         159.525         0.968719         67.7805
                               0               0                0               0         0.968847         67.7626         0.217348         159.617
                               0               0                0               0        0.0944554        -12.8875        0.0706337        -4.99908
                               0               0                0               0        0.0706156        -5.04099         0.094378        -12.9336
75.045                         0               0                0               0         0.220381         158.731         0.969482         67.0941
                               0               0                0               0         0.969473         67.0795         0.220543         158.835
                               0               0                0               0        0.0924923        -13.2272        0.0710539        -5.99895
                               0               0                0               0        0.0710586        -6.08537        0.0924089        -13.2685
75.09                          0               0                0               0         0.223309         157.896         0.969877         66.3529
                               0               0                0               0          0.96977         66.3398         0.223499         158.008
                               0               0                0               0        0.0903023        -13.5822         0.071376        -7.07493
                               0               0                0               0        0.0714021        -7.19013        0.0902146        -13.6206
75.135                         0               0                0               0         0.225994         157.014         0.969963         65.5539
                               0               0                0               0         0.969798         65.5411         0.226197         157.131
                               0               0                0               0        0.0878882        -13.9536        0.0715986        -8.23545
                               0               0                0               0        0.0716424        -8.36595        0.0877978        -13.9905
75.18                          0               0                0               0         0.228415         156.082         0.969808         64.6948
                               0               0                0               0         0.969619         64.6814         0.228618         156.203
                               0               0                0               0        0.0852532        -14.3407        0.0717216        -9.48807
                               0               0                0               0        0.0717775        -9.62294        0.0851614        -14.3772
75.225                         0               0                0               0         0.230556         155.098         0.969476         63.7739
                               0               0                0               0         0.969295         63.7597         0.230749         155.219
                               0               0                0               0        0.0824007        -14.7412        0.0717457        -10.8394
                               0               0                0               0        0.0718075        -10.9703        0.0823086        -14.7783
75.27                          0               0                0               0         0.232402         154.057         0.969036         62.7905
                               0               0                0               0         0.968885         62.7754         0.232578         154.176
                               0               0                0               0        0.0793341        -15.1507        0.0716722        -12.2948
                               0               0                0               0        0.0717338         -12.416        0.0792426        -15.1891
75.315                         0               0                0               0         0.233941         152.957         0.968547         61.7445
                               0               0                0               0         0.968446         61.7286         0.234097         153.074
                               0               0                0               0        0.0760572        -15.5625        0.0715028        -13.8586
                               0               0                0               0        0.0715589        -13.9666        0.0759668        -15.6028
75.36                          0               0                0               0         0.235168         151.797         0.968068         60.6366
                               0               0                0               0         0.968026         60.6203         0.235301         151.909
                               0               0                0               0        0.0725736        -15.9668        0.0712395        -15.5339
                               0               0                0               0         0.071286        -15.6272        0.0724846        -16.0094
75.405                         0               0                0               0         0.236078         150.575         0.967647          59.468
                               0               0                0               0          0.96767         59.4516         0.236188         150.683
                               0               0                0               0        0.0688874        -16.3502         0.070884        -17.3228
                               0               0                0               0        0.0709184        -17.4012        0.0687999        -16.3952
75.45                          0               0                0               0         0.236671         149.291         0.967324         58.2404
                               0               0                0               0         0.967411         58.2244          0.23676         149.394
                               0               0                0               0        0.0650032         -16.694         0.070438         -19.226
                               0               0                0               0        0.0704594        -19.2906        0.0649171        -16.7417
75.495                         0               0                0               0         0.236951         147.945          0.96713         56.9561
                               0               0                0               0         0.967275         56.9407         0.237021         148.043
                               0               0                0               0        0.0609265        -16.9725         0.069903        -21.2436
                               0               0                0               0        0.0699118        -21.2963        0.0608414        -17.0229
75.54                          0               0                0               0         0.236923         146.538         0.967085         55.6175
                               0               0                0               0         0.967279          55.603         0.236977         146.632
                               0               0                0               0        0.0566642        -17.1502        0.0692802        -23.3746
                               0               0                0               0         0.069278        -23.4174        0.0565797        -17.2031
75.585                         0               0                0               0         0.236596         145.072         0.967201         54.2274
                               0               0                0               0         0.967433         54.2139         0.236638         145.162
                               0               0                0               0        0.0522253        -17.1765        0.0685704         -25.617
                               0               0                0               0        0.0685601        -25.6525        0.0521409        -17.2319
75.63                          0               0                0               0         0.235982         143.549         0.967479         52.7887
                               0               0                0               0         0.967735         52.7762         0.236015         143.637
                               0               0                0               0        0.0476223        -16.9786        0.0677745        -27.9685
                               0               0                0               0        0.0677593        -27.9988        0.0475374        -17.0359
75.675                         0               0                0               0         0.235094         141.973         0.967913         51.3044
                               0               0                0               0         0.968179         51.2928         0.235121          142.06
                               0               0                0               0        0.0428729        -16.4473        0.0668936        -30.4257
                               0               0                0               0        0.0668769        -30.4532        0.0427871        -16.5057
75.72                          0               0                0               0         0.233946         140.348         0.968487         49.7775
                               0               0                0               0         0.968751         49.7666          0.23397         140.434
                               0               0                0               0        0.0380035        -15.4138        0.0659286        -32.9852
                               0               0                0               0        0.0659136        -33.0115        0.0379164        -15.4717
75.765                         0               0                0               0         0.232555         138.677         0.969181          48.211
                               0               0                0               0          0.96943         48.2007         0.232577         138.763
                               0               0                0               0        0.0330556        -13.6044        0.0648811        -35.6429
                               0               0                0               0        0.0648707        -35.6696        0.0329669        -13.6588
75.81                          0               0                0               0         0.230938         136.966         0.969968          46.608
                               0               0                0               0         0.970191         46.5981         0.230959         137.052
                               0               0                0               0        0.0280988        -10.5541         0.063753        -38.3946
                               0               0                0               0        0.0637493        -38.4227        0.0280085        -10.5988
75.855                         0               0                0               0         0.229112         135.218         0.970817         44.9713
                               0               0                0               0         0.971008         44.9616         0.229133         135.306
                               0               0                0               0        0.0232594          -5.435         0.062547        -41.2359
                               0               0                0               0        0.0625512        -41.2662         0.023168        -5.45674
75.9                           0               0                0               0         0.227096          133.44         0.971695          43.304
                               0               0                0               0          0.97185         43.2944         0.227117         133.528
                               0               0                0               0         0.018787         3.24747        0.0612665        -44.1627
                               0               0                0               0         0.061279        -44.1953         0.018697         3.27765
75.945                         0               0                0               0         0.224908         131.635         0.972567         41.6088
                               0               0                0               0         0.972686         41.5993         0.224928         131.724
                               0               0                0               0        0.0151973         17.8549        0.0599159        -47.1709
                               0               0                0               0         0.059936        -47.2058         0.015116         17.9917
75.99                          0               0                0               0         0.222566         129.808           0.9734         39.8888
                               0               0                0               0         0.973487         39.8793         0.222583         129.898
                               0               0                0               0        0.0134206         39.7559        0.0585002        -50.2572
                               0               0                0               0        0.0585266        -50.2937        0.0133632         40.0376
76.035                         0               0                0               0         0.220088         127.965         0.974163         38.1466
                               0               0                0               0         0.974226         38.1374         0.220101         128.055
                               0               0                0               0        0.0143139         63.6645        0.0570257        -53.4185
                               0               0                0               0        0.0570562         -53.456        0.0142926         63.9964
76.08                          0               0                0               0         0.217491         126.109         0.974832         36.3854
                               0               0                0               0         0.974883         36.3767         0.217499         126.198
                               0               0                0               0        0.0175789         81.4972        0.0554993        -56.6531
                               0               0                0               0        0.0555313        -56.6904        0.0175873          81.768
76.125                         0               0                0               0         0.214792         124.244         0.975389         34.6081
                               0               0                0               0         0.975443         34.6003         0.214793         124.332
                               0               0                0               0        0.0222573         92.3198        0.0539287        -59.9602
                               0               0                0               0        0.0539594        -59.9963        0.0222833          92.518
76.17                          0               0                0               0         0.212008         122.374         0.975831         32.8179
                               0               0                0               0         0.975903         32.8113         0.212001         122.459
                               0               0                0               0        0.0276756          98.559        0.0523225        -63.3403
                               0               0                0               0        0.0523494        -63.3743         0.027711         98.7051
76.215                         0               0                0               0         0.209153         120.501         0.976169          31.018
                               0               0                0               0         0.976273         31.0129         0.209137         120.584
                               0               0                0               0        0.0334906         102.112        0.0506897        -66.7956
                               0               0                0               0        0.0507108        -66.8269        0.0335308         102.224
76.26                          0               0                0               0         0.206244         118.628         0.976434         29.2119
                               0               0                0               0         0.976578         29.2086         0.206219         118.709
                               0               0                0               0        0.0395271         104.062        0.0490399          -70.33
                               0               0                0               0        0.0490543        -70.3586        0.0395695          104.15
76.305                         0               0                0               0         0.203294         116.758         0.976677         27.4032
                               0               0                0               0         0.976859         27.4016         0.203261         116.836
                               0               0                0               0         0.045686         105.009        0.0473832        -73.9492
                               0               0                0               0        0.0473911        -73.9759        0.0457295         105.081
76.35                          0               0                0               0         0.200318         114.891         0.976974         25.5957
                               0               0                0               0         0.977172         25.5954         0.200279         114.967
                               0               0                0               0        0.0519051         105.301          0.04573        -77.6607
                               0               0                0               0        0.0457336        -77.6869        0.0519496         105.361
76.395                         0               0                0               0         0.197332         113.028         0.977409         23.7928
                               0               0                0               0         0.977582         23.7934         0.197287         113.104
                               0               0                0               0        0.0581416         105.152         0.044091        -81.4733
                               0               0                0               0        0.0440942        -81.5011        0.0581873         105.202
76.44                          0               0                0               0          0.19435         111.171         0.978056         21.9978
                               0               0                0               0         0.978147         21.9986         0.194302         111.249
                               0               0                0               0        0.0643638         104.695        0.0424773        -85.3962
                               0               0                0               0        0.0424856        -85.4278        0.0644116         104.737
76.485                         0               0                0               0         0.191389         109.321         0.978949         20.2132
                               0               0                0               0         0.978897         20.2136         0.191338         109.402
                               0               0                0               0         0.070547         104.019        0.0408998        -89.4381
                               0               0                0               0        0.0409196        -89.4746         0.070598         104.053
76.53                          0               0                0               0         0.188469          107.48         0.980031         18.4405
                               0               0                0               0         0.979801         18.4404         0.188415         107.568
                               0               0                0               0        0.0766711          103.18         0.039369        -93.6048
                               0               0                0               0        0.0394059        -93.6452         0.076726         103.207
76.575                         0               0                0               0         0.185608         105.652         0.981135         16.6805
                               0               0                0               0         0.980741         16.6803         0.185549         105.748
                               0               0                0               0        0.0827185         102.213        0.0378939        -97.8962
                               0               0                0               0        0.0379507        -97.9368        0.0827775         102.234
76.62                          0               0                0               0         0.182828         103.844         0.981997         14.9334
                               0               0                0               0         0.981514         14.9337          0.18276         103.949
                               0               0                0               0        0.0886724         101.137        0.0364804        -102.304
                               0               0                0               0        0.0365541        -102.339        0.0887345         101.153
76.665                         0               0                0               0         0.180146         102.067         0.982314         13.1997
                               0               0                0               0         0.981858         13.2011         0.180064          102.18
                               0               0                0               0        0.0945147         99.9578        0.0351287        -106.808
                               0               0                0               0        0.0352096        -106.831        0.0945777         99.9709
76.71                          0               0                0               0         0.177569          100.34         0.981835           11.48
                               0               0                0               0         0.981518         11.4826         0.177473         100.452
                               0               0                0               0         0.100224         98.6734        0.0338321         -111.38
                               0               0                0               0        0.0339036         -111.39         0.100285         98.6856
76.755                         0               0                0               0         0.175089         98.6841         0.980422         9.77539
                               0               0                0               0         0.980309         9.77883          0.17499         98.7835
                               0               0                0               0         0.105774         97.2792        0.0325754        -115.984
                               0               0                0               0        0.0326183        -115.986         0.105829         97.2931
76.8                           0               0                0               0         0.172672          97.125         0.978061         8.08704
                               0               0                0               0          0.97816         8.09088         0.172599          97.197
                               0               0                0               0         0.111133         95.7741        0.0313385        -120.587
                               0               0                0               0        0.0313369        -120.593         0.111182         95.7914
76.845                         0               0                0               0         0.170265         95.6854         0.974836         6.41634
                               0               0                0               0         0.975105         6.42012         0.170261         95.7166
                               0               0                0               0         0.116269         94.1641        0.0301015        -125.163
                               0               0                0               0        0.0300488        -125.188          0.11631         94.1856
76.89                          0               0                0               0         0.167807         94.3804         0.970878         4.76472
                               0               0                0               0         0.971252         4.76815         0.167919         94.3644
                               0               0                0               0         0.121149         92.4652        0.0288518        -129.701
                               0               0                0               0        0.0287534        -129.753         0.121186         92.4902
76.935                         0               0                0               0         0.165256          93.215         0.966338          3.1336
                               0               0                0               0         0.966747          3.1366         0.165506         93.1561
                               0               0                0               0         0.125751         90.7008        0.0275894        -134.203
                               0               0                0               0        0.0274613        -134.279         0.125785         90.7276
76.98                          0               0                0               0         0.162606         92.1857         0.961353         1.52425
                               0               0                0               0         0.961741         1.52691         0.162971         92.0983
                               0               0                0               0         0.130062         88.8984        0.0263269        -138.675
                               0               0                0               0        0.0261914        -138.762         0.130097         88.9248
77.025                         0               0                0               0         0.159895         91.2842         0.956045      -0.0622411
                               0               0                0               0         0.956373      -0.0597217         0.160303         91.1901
                               0               0                0               0         0.134083          87.085        0.0250867        -143.128
                               0               0                0               0        0.0249664        -143.211          0.13412         87.1088
77.07                          0               0                0               0         0.157197         90.4993         0.950515        -1.62505
                               0               0                0               0          0.95076        -1.62245         0.157542         90.4265
                               0               0                0               0         0.137825         85.2831        0.0238949        -147.575
                               0               0                0               0        0.0238082        -147.637         0.137865         85.3027
77.115                         0               0                0               0         0.154604         89.8161         0.944846        -3.16365
                               0               0                0               0         0.944999        -3.16073         0.154782         89.7999
                               0               0                0               0         0.141308           83.51        0.0227763        -152.027
                               0               0                0               0        0.0227351        -152.059         0.141349         83.5246
77.16                          0               0                0               0         0.152203          89.215         0.939105        -4.67779
                               0               0                0               0         0.939167        -4.67438         0.152149         89.2968
                               0               0                0               0         0.144552          81.777         0.021751        -156.495
                               0               0                0               0        0.0217599        -156.495         0.144594         81.7865
77.205                         0               0                0               0         0.150062         88.6707         0.933348        -6.16749