! TOUCHSTONE file generated by CST MICROWAVE STUDIO
! Date and time: Sun Jun 20 22:37:24 2021
! Project name: HIPS_d_sweep.cst
! Parameters = {fmax=120; fmin=75; b=0.46; d=20.7; a=0.63; phi=0; theta=0}
! Header version: 2018
! Port assignment regex: !\s*Touchstone port\s*([0-9]+)\s*=\s*(CST MWS port|CST DS port)\s*([0-9]+|Zmin|Zmax)\s*\(\"(.*)\"\)(\s*mode\s*([0-9]+))?.*
! Touchstone port assignment:
! Touchstone port 1 = CST MWS port Zmin ("") mode 1
! Touchstone port 2 = CST MWS port Zmin ("") mode 2
! Touchstone port 3 = CST MWS port Zmax ("") mode 1
! Touchstone port 4 = CST MWS port Zmax ("") mode 2
! S-Parameters are not renormalized. Unphysical impedance of 0 will be written to the file.
# GHz S MA R 0
75                             0               0                0               0         0.130197         36.7657         0.966591        -57.3488
                               0               0                0               0         0.966205        -57.3422         0.130046         36.7489
                               0               0                0               0         0.216241         34.1788        0.0502893         67.9199
                               0               0                0               0        0.0503296         68.0143         0.216199         34.1779
75.045                         0               0                0               0         0.133016         36.1621         0.967113        -58.0096
                               0               0                0               0         0.966628        -57.9962         0.133265         36.0677
                               0               0                0               0         0.215511         33.6139        0.0511011          67.404
                               0               0                0               0        0.0509613         67.4728         0.215456         33.6249
75.09                          0               0                0               0         0.135768         35.4628         0.967343        -58.7419
                               0               0                0               0         0.966786        -58.7243         0.136295         35.3105
                               0               0                0               0         0.214669         32.9629        0.0518722         66.7894
                               0               0                0               0        0.0515945         66.8324         0.214601         32.9807
75.135                         0               0                0               0         0.138413         34.6688         0.967355        -59.5457
                               0               0                0               0         0.966752        -59.5259         0.139108         34.4793
                               0               0                0               0         0.213732          32.229        0.0526009         66.0657
                               0               0                0               0        0.0522273         66.0854         0.213654         32.2495
75.18                          0               0                0               0          0.14091         33.7832         0.967215        -60.4204
                               0               0                0               0          0.96659           -60.4         0.141681         33.5763
                               0               0                0               0         0.212713         31.4158        0.0532868         65.2232
                               0               0                0               0        0.0528575         65.2246         0.212627         31.4362
75.225                         0               0                0               0         0.143219         32.8106         0.966985        -61.3648
                               0               0                0               0         0.966357        -61.3449         0.143993         32.6041
                               0               0                0               0         0.211618         30.5269        0.0539308         64.2541
                               0               0                0               0        0.0534822         64.2437         0.211529         30.5453
75.27                          0               0                0               0         0.145303          31.757         0.966715        -62.3772
                               0               0                0               0         0.966102        -62.3587         0.146025         31.5654
                               0               0                0               0         0.210449         29.5661        0.0545345         63.1525
                               0               0                0               0        0.0540978         63.1373         0.210359         29.5813
75.315                         0               0                0               0         0.147132          30.629         0.966451        -63.4558
                               0               0                0               0         0.965866         -63.439         0.147767         30.4631
                               0               0                0               0         0.209205         28.5369        0.0550999         61.9145
                               0               0                0               0        0.0547004         61.9014         0.209116         28.5483
75.36                          0               0                0               0         0.148681          29.434         0.966229        -64.5983
                               0               0                0               0          0.96568        -64.5834         0.149209         29.3002
                               0               0                0               0          0.20788         27.4427        0.0556292         60.5389
                               0               0                0               0        0.0552851         60.5333         0.207795           27.45
75.405                         0               0                0               0         0.149932         28.1791         0.966076        -65.8021
                               0               0                0               0         0.965569        -65.7891         0.150347         28.0799
                               0               0                0               0         0.206467         26.2866        0.0561243         59.0262
                               0               0                0               0        0.0558465         59.0322         0.206386           26.29
75.45                          0               0                0               0         0.150875         26.8709         0.966014        -67.0646
                               0               0                0               0         0.965549        -67.0535         0.151182         26.8053
                               0               0                0               0         0.204956         25.0716        0.0565861         57.3797
                               0               0                0               0        0.0563786         57.3988          0.20488         25.0715
75.495                         0               0                0               0         0.151506         25.5156         0.966056        -68.3832
                               0               0                0               0         0.965633        -68.3736         0.151719         25.4793
                               0               0                0               0         0.203337         23.8004        0.0570149         55.6039
                               0               0                0               0        0.0568752         55.6361         0.203265         23.7972
75.54                          0               0                0               0          0.15183          24.118         0.966208        -69.7549
                               0               0                0               0         0.965824        -69.7466         0.151965         24.1047
                               0               0                0               0         0.201598         22.4756        0.0574097         53.7054
                               0               0                0               0        0.0573299         53.7486         0.201531         22.4698
75.585                         0               0                0               0         0.151855         22.6821         0.966474         -71.177
                               0               0                0               0         0.966122        -71.1696         0.151933         22.6844
                               0               0                0               0         0.199727         21.0997        0.0577686          51.692
                               0               0                0               0        0.0577364         51.7429         0.199664          21.092
75.63                          0               0                0               0         0.151595         21.2107          0.96685        -72.6467
                               0               0                0               0         0.966524        -72.6399         0.151636         21.2205
                               0               0                0               0         0.197711         19.6752        0.0580887         49.5722
                               0               0                0               0        0.0580891         49.6269         0.197651         19.6661
75.675                         0               0                0               0         0.151069         19.7055         0.967329        -74.1613
                               0               0                0               0         0.967022        -74.1548         0.151091         19.7155
                               0               0                0               0         0.195539         18.2044        0.0583663         47.3555
                               0               0                0               0        0.0583828         47.4101         0.195482         18.1946
75.72                          0               0                0               0         0.150297         18.1673         0.967902         -75.718
                               0               0                0               0         0.967607        -75.7114         0.150314          18.171
                               0               0                0               0         0.193198         16.6898        0.0585969         45.0518
                               0               0                0               0        0.0586137         45.1028         0.193144         16.6797
75.765                         0               0                0               0           0.1493          16.596         0.968558        -77.3141
                               0               0                0               0         0.968267        -77.3073         0.149324         16.5886
                               0               0                0               0         0.190679         15.1337        0.0587761         42.6709
                               0               0                0               0        0.0587791         42.7159         0.190627         15.1239
75.81                          0               0                0               0         0.148101         14.9909         0.969283        -78.9472
                               0               0                0               0         0.968991        -78.9399          0.14814         14.9695
                               0               0                0               0         0.187971         13.5388        0.0588992         40.2228
                               0               0                0               0        0.0588774         40.2604         0.187921         13.5294
75.855                         0               0                0               0         0.146723         13.3511         0.970067        -80.6145
                               0               0                0               0         0.969768        -80.6067         0.146779         13.3147
                               0               0                0               0         0.185067         11.9075         0.058962         37.7171
                               0               0                0               0        0.0589085         37.7471         0.185019         11.8987
75.9                           0               0                0               0         0.145186         11.6753         0.970897        -82.3137
                               0               0                0               0         0.970589        -82.3052          0.14526         11.6247
                               0               0                0               0          0.18196         10.2423        0.0589606         35.1627
                               0               0                0               0        0.0588731         35.1859         0.181914         10.2342
75.945                         0               0                0               0         0.143511         9.96221         0.971764        -84.0422
                               0               0                0               0         0.971446        -84.0332         0.143599         9.89991
                               0               0                0               0         0.178646         8.54579        0.0588918         32.5681
                               0               0                0               0        0.0587732         32.5858         0.178602         8.53827
75.99                          0               0                0               0         0.141716          8.2107         0.972661        -85.7976
                               0               0                0               0         0.972334        -85.7881         0.141812         8.14044
                               0               0                0               0         0.175123          6.8205        0.0587535         29.9408
                               0               0                0               0        0.0586109         29.9545         0.175081         6.81333
76.035                         0               0                0               0          0.13982         6.42006         0.973585        -87.5774
                               0               0                0               0         0.973253        -87.5676         0.139916         6.34632
                               0               0                0               0          0.17139         5.06891        0.0585441         27.2873
                               0               0                0               0        0.0583886         27.2983          0.17135         5.06173
76.08                          0               0                0               0         0.137836         4.59008         0.974536        -89.3789
                               0               0                0               0         0.974204        -89.3692         0.137922         4.51754
                               0               0                0               0          0.16745         3.29345        0.0582632         24.6132
                               0               0                0               0        0.0581088         24.6224         0.167412          3.2858
76.125                         0               0                0               0         0.135779         2.72123         0.975519        -91.1996
                               0               0                0               0         0.975193        -91.1903         0.135846         2.65421
                               0               0                0               0         0.163306         1.49646        0.0579111         21.9228
                               0               0                0               0        0.0577732         21.9306         0.163271         1.48784
76.17                          0               0                0               0          0.13366        0.814853         0.976541        -93.0366
                               0               0                0               0         0.976231         -93.028         0.133698        0.756716
                               0               0                0               0         0.158965       -0.319729        0.0574892         19.2193
                               0               0                0               0        0.0573829         19.2259         0.158932        -0.32985
76.215                         0               0                0               0          0.13149        -1.12674         0.977612         -94.887
                               0               0                0               0         0.977327        -94.8794         0.131491          -1.174
                               0               0                0               0         0.154435        -2.15279        0.0569996         16.5051
                               0               0                0               0        0.0569382         16.5105         0.154405        -2.16488
76.26                          0               0                0               0         0.129277        -3.10005         0.978745        -96.7473
                               0               0                0               0         0.978492        -96.7409         0.129236        -3.13621
                               0               0                0               0         0.149725        -4.00022        0.0564451         13.7817
                               0               0                0               0        0.0564384         13.7866         0.149697        -4.01467
76.305                         0               0                0               0         0.127029        -5.10026         0.979945        -98.6142
                               0               0                0               0         0.979731        -98.6091         0.126943        -5.12699
                               0               0                0               0         0.144844         -5.8592        0.0558292         11.0506
                               0               0                0               0         0.055882         11.0562         0.144819        -5.87621
76.35                          0               0                0               0         0.124752        -7.12108         0.981215        -100.484
                               0               0                0               0         0.981042         -100.48         0.124623        -7.14189
                               0               0                0               0         0.139804        -7.72631         0.055156         8.31335
                               0               0                0               0        0.0552666          8.3221         0.139783        -7.74585
76.395                         0               0                0               0         0.122452        -9.15463         0.982543        -102.353
                               0               0                0               0         0.982409         -102.35         0.122285        -9.17453
                               0               0                0               0         0.134615        -9.59717        0.0544298         5.57299
                               0               0                0               0        0.0545896         5.58794         0.134597        -9.61901
76.44                          0               0                0               0         0.120134        -11.1913         0.983903        -104.216
                               0               0                0               0           0.9838        -104.214         0.119939        -11.2162
                               0               0                0               0         0.129286        -11.4661        0.0536544         2.83445
                               0               0                0               0         0.053848         2.85873         0.129272        -11.4898
76.485                         0               0                0               0         0.117803        -13.2196         0.985248        -106.072
                               0               0                0               0         0.985162         -106.07         0.117591        -13.2557
                               0               0                0               0         0.123826        -13.3257        0.0528326        0.105466
                               0               0                0               0        0.0530394        0.141139         0.123816        -13.3505
76.53                          0               0                0               0         0.115464        -15.2266         0.986509        -107.917
                               0               0                0               0         0.986423        -107.914         0.115248        -15.2791
                               0               0                0               0          0.11824        -15.1665        0.0519652        -2.60312
                               0               0                0               0        0.0521617        -2.55636         0.118234        -15.1917
76.575                         0               0                0               0          0.11312        -17.1974         0.987597         -109.75
                               0               0                0               0         0.987495        -109.745         0.112914        -17.2702
                               0               0                0               0         0.112535        -16.9762        0.0510504        -5.27782
                               0               0                0               0         0.051214        -5.22341         0.112533        -17.0011
76.62                          0               0                0               0         0.110778         -19.116         0.988413        -111.569
                               0               0                0               0         0.988276        -111.563         0.110591         -19.211
                               0               0                0               0         0.106715        -18.7398        0.0500837        -7.90364
                               0               0                0               0        0.0501971        -7.84782         0.106717        -18.7638
76.665                         0               0                0               0         0.108441        -20.9655         0.988847        -113.375
                               0               0                0               0         0.988667        -113.367         0.108279        -21.0822
                               0               0                0               0         0.100786        -20.4386        0.0490591        -10.4656
                               0               0                0               0        0.0491131        -10.4159         0.100791        -20.4617
76.71                          0               0                0               0         0.106115        -22.7288           0.9888        -115.168
                               0               0                0               0         0.988572        -115.158          0.10598        -22.8648
                               0               0                0               0        0.0947558        -22.0502        0.0479709        -12.9499
                               0               0                0               0         0.047966         -12.913        0.0947632        -22.0724
76.755                         0               0                0               0         0.103807        -24.3891         0.988184         -116.95
                               0               0                0               0         0.987913        -116.938         0.103695        -24.5406
                               0               0                0               0        0.0886355        -23.5471        0.0468157        -15.3445
                               0               0                0               0        0.0467615         -15.324        0.0886455        -23.5689
76.8                           0               0                0               0         0.101525        -25.9313         0.986936         -118.72
                               0               0                0               0         0.986633        -118.707         0.101426        -26.0935
                               0               0                0               0        0.0824425         -24.896        0.0455943        -17.6391
                               0               0                0               0         0.045507        -17.6343        0.0824545        -24.9184
76.845                         0               0                0               0        0.0992789        -27.3423          0.98502        -120.479
                               0               0                0               0         0.984699        -120.465        0.0991831        -27.5106
                               0               0                0               0        0.0762002        -26.0561        0.0443121        -19.8243
                               0               0                0               0        0.0442111        -19.8303        0.0762136        -26.0803
76.89                          0               0                0               0        0.0970802        -28.6123         0.982432        -122.225
                               0               0                0               0         0.982108         -122.21        0.0969765        -28.7826
                               0               0                0               0        0.0699387        -26.9764        0.0429791        -21.8917
                               0               0                0               0        0.0428836        -21.9011         0.069953        -27.0038
76.935                         0               0                0               0        0.0949432        -29.7352         0.979198        -123.955
                               0               0                0               0          0.97888        -123.942         0.094823        -29.9043
                               0               0                0               0        0.0636948        -27.5928        0.0416092        -23.8336
                               0               0                0               0        0.0415348        -23.8381        0.0637094        -27.6248
76.98                          0               0                0               0         0.092884        -30.7095          0.97537        -125.669
                               0               0                0               0         0.975061        -125.657        0.0927426        -30.8752
                               0               0                0               0        0.0575119        -27.8218        0.0402183        -25.6439
                               0               0                0               0        0.0401757        -25.6367         0.057526        -27.8598
77.025                         0               0                0               0        0.0909198         -31.538         0.971018        -127.363
                               0               0                0               0         0.970718        -127.353        0.0907571        -31.6992
                               0               0                0               0        0.0514395        -27.5521        0.0388234        -27.3182
                               0               0                0               0        0.0388173        -27.2956        0.0514526        -27.5977
77.07                          0               0                0               0        0.0890686        -32.2283         0.966228        -129.035
                               0               0                0               0          0.96593        -129.028         0.088889        -32.3851
                               0               0                0               0        0.0455348        -26.6311        0.0374408        -28.8554
                               0               0                0               0        0.0374704         -28.817        0.0455464        -26.6861
77.115                         0               0                0               0        0.0873471         -32.792         0.961089        -130.684
                               0               0                0               0         0.960784         -130.68        0.0871587        -32.9455
                               0               0                0               0        0.0398658        -24.8441        0.0360855        -30.2575
                               0               0                0               0        0.0361452        -30.2066        0.0398753        -24.9105
77.16                          0               0                0               0        0.0857707        -33.2448         0.955692        -132.307
                               0               0                0               0         0.955371        -132.306        0.0855836         -33.397
                               0               0                0               0        0.0345181        -21.8838        0.0347699        -31.5301
                               0               0                0               0         0.034851        -31.4722        0.0345247        -21.9643
77.205                         0               0                0               0        0.0843512         -33.605         0.950122        -133.906