! TOUCHSTONE file generated by CST MICROWAVE STUDIO
! Date and time: Sun Jun 20 22:36:58 2021
! Project name: HIPS_d_sweep.cst
! Parameters = {fmax=120; fmin=75; b=0.46; d=17.6; a=0.63; phi=0; theta=0}
! Header version: 2018
! Port assignment regex: !\s*Touchstone port\s*([0-9]+)\s*=\s*(CST MWS port|CST DS port)\s*([0-9]+|Zmin|Zmax)\s*\(\"(.*)\"\)(\s*mode\s*([0-9]+))?.*
! Touchstone port assignment:
! Touchstone port 1 = CST MWS port Zmin ("") mode 1
! Touchstone port 2 = CST MWS port Zmin ("") mode 2
! Touchstone port 3 = CST MWS port Zmax ("") mode 1
! Touchstone port 4 = CST MWS port Zmax ("") mode 2
! S-Parameters are not renormalized. Unphysical impedance of 0 will be written to the file.
# GHz S MA R 0
75                             0               0                0               0         0.332768         26.4085         0.919691        -65.7954
                               0               0                0               0         0.919907        -65.8021         0.332682         26.4454
                               0               0                0               0         0.188715         30.6627        0.0881619         75.0798
                               0               0                0               0        0.0882376         75.0993         0.188756         30.6401
75.045                         0               0                0               0         0.335252         25.6062         0.920418        -66.4775
                               0               0                0               0         0.920789        -66.4705         0.335207          25.627
                               0               0                0               0         0.188124         30.1606        0.0890727         74.0069
                               0               0                0               0        0.0891288          73.995         0.188087         30.0991
75.09                          0               0                0               0         0.337631         24.7887         0.920937        -67.1957
                               0               0                0               0         0.921399         -67.177         0.337631         24.7969
                               0               0                0               0         0.187408         29.6284        0.0899244         72.8899
                               0               0                0               0        0.0899676         72.8515         0.187321         29.5348
75.135                         0               0                0               0         0.339887         23.9548         0.921256        -67.9516
                               0               0                0               0         0.921759        -67.9237         0.339934         23.9538
                               0               0                0               0         0.186569          29.063         0.090713         71.7234
                               0               0                0               0        0.0907495         71.6639         0.186457         28.9444
75.18                          0               0                0               0         0.342002         23.1032         0.921388        -68.7471
                               0               0                0               0         0.921891        -68.7124         0.342094         23.0962
                               0               0                0               0         0.185613         28.4616        0.0914354         70.5019
                               0               0                0               0        0.0914705         70.4268         0.185494         28.3252
75.225                         0               0                0               0         0.343956         22.2321         0.921348        -69.5836
                               0               0                0               0         0.921821        -69.5445          0.34409         22.2221
                               0               0                0               0         0.184545          27.822        0.0920899         69.2199
                               0               0                0               0         0.092128         69.1347         0.184432         27.6747
75.27                          0               0                0               0         0.345731         21.3393         0.921157        -70.4627
                               0               0                0               0         0.921579        -70.4216         0.345901          21.329
                               0               0                0               0         0.183371         27.1423        0.0926763         67.8717
                               0               0                0               0        0.0927203         67.7818         0.183273         26.9906
75.315                         0               0                0               0         0.347311         20.4224         0.920836        -71.3856
                               0               0                0               0         0.921196        -71.3447         0.347509         20.4141
                               0               0                0               0         0.182097         26.4212        0.0931961         66.4521
                               0               0                0               0        0.0932477         66.3625         0.182019         26.2708
75.36                          0               0                0               0         0.348679         19.4787         0.920411        -72.3537
                               0               0                0               0         0.920707        -72.3146         0.348895         19.4743
                               0               0                0               0         0.180728          25.658        0.0936522         64.9563
                               0               0                0               0        0.0937118         64.8716         0.180672         25.5137
75.405                         0               0                0               0         0.349824         18.5053         0.919911        -73.3675
                               0               0                0               0         0.920145        -73.3318         0.350046         18.5059
                               0               0                0               0         0.179271         24.8525         0.094049         63.3805
                               0               0                0               0        0.0941157         63.3044         0.179235          24.718
75.45                          0               0                0               0         0.350736          17.499         0.919366        -74.4277
                               0               0                0               0         0.919548        -74.3964         0.350953         17.5054
                               0               0                0               0         0.177727         24.0048        0.0943923         61.7215
                               0               0                0               0        0.0944642         61.6571          0.17771         23.8828
75.495                         0               0                0               0          0.35141         16.4566         0.918808        -75.5345
                               0               0                0               0          0.91895        -75.5081         0.351609         16.4687
                               0               0                0               0         0.176102         23.1157        0.0946886         59.9776
                               0               0                0               0        0.0947629         59.9267           0.1761         23.0078
75.54                          0               0                0               0         0.351846         15.3751         0.918271        -76.6875
                               0               0                0               0         0.918387        -76.6663         0.352017         15.3925
                               0               0                0               0         0.174397         22.1861        0.0949449          58.148
                               0               0                0               0        0.0950186         58.1118         0.174407          22.093
75.585                         0               0                0               0         0.352047         14.2515         0.917787        -77.8861
                               0               0                0               0         0.917889        -77.8697         0.352181         14.2732
                               0               0                0               0         0.172612         21.2175        0.0951684         56.2336
                               0               0                0               0        0.0952381         56.2121          0.17263         21.1389
75.63                          0               0                0               0         0.352023         13.0835         0.917386        -79.1291
                               0               0                0               0         0.917487        -79.1171         0.352114          13.108
                               0               0                0               0         0.170748         20.2113        0.0953654         54.2362
                               0               0                0               0        0.0954282         54.2286         0.170771         20.1466
75.675                         0               0                0               0         0.351787         11.8692         0.917098        -80.4149
                               0               0                0               0         0.917207        -80.4065         0.351832          11.895
                               0               0                0               0         0.168801         19.1696        0.0955418         52.1592
                               0               0                0               0         0.095595          52.164         0.168828         19.1173
75.72                          0               0                0               0         0.351356         10.6076         0.916946        -81.7415
                               0               0                0               0         0.917069        -81.7358         0.351355          10.633
                               0               0                0               0         0.166771         18.0942         0.095702         50.0067
                               0               0                0               0        0.0957436         50.0219         0.166799         18.0527
75.765                         0               0                0               0         0.350749         9.29832          0.91695        -83.1065
                               0               0                0               0          0.91709        -83.1024         0.350704          9.3218
                               0               0                0               0         0.164653         16.9875        0.0958489         47.7839
                               0               0                0               0        0.0958776         47.8072         0.164681         16.9548
75.81                          0               0                0               0         0.349986         7.94214         0.917124        -84.5072
                               0               0                0               0          0.91728        -84.5037         0.349905         7.96227
                               0               0                0               0         0.162443         15.8519        0.0959839         45.4966
                               0               0                0               0        0.0959991         45.5255         0.162472          15.826
75.855                         0               0                0               0         0.349091         6.54064         0.917475        -85.9405
                               0               0                0               0         0.917644        -85.9367         0.348979         6.55634
                               0               0                0               0         0.160137         14.6898        0.0961068         43.1511
                               0               0                0               0        0.0961084         43.1832         0.160166         14.6688
75.9                           0               0                0               0         0.348081         5.09633         0.918005        -87.4031
                               0               0                0               0         0.918181        -87.3983         0.347947         5.10688
                               0               0                0               0          0.15773         13.5042        0.0962156         40.7538
                               0               0                0               0        0.0962041         40.7869         0.157758         13.4861
75.945                         0               0                0               0         0.346977          3.6125         0.918707        -88.8918
                               0               0                0               0         0.918883        -88.8855         0.346829         3.61755
                               0               0                0               0         0.155216         12.2981        0.0963069         38.3113
                               0               0                0               0        0.0962834         38.3434         0.155245         12.2812
75.99                          0               0                0               0         0.345793         2.09309         0.919569        -90.4032
                               0               0                0               0         0.919736        -90.3949         0.345639         2.09265
                               0               0                0               0          0.15259         11.0746        0.0963764           35.83
                               0               0                0               0        0.0963419         35.8596         0.152621         11.0574
76.035                         0               0                0               0         0.344543        0.542545         0.920571        -91.9338
                               0               0                0               0         0.920724        -91.9235          0.34439        0.536935
                               0               0                0               0         0.149849         9.83726        0.0964185         33.3162
                               0               0                0               0        0.0963743         33.3423         0.149881          9.8187
76.08                          0               0                0               0         0.343236        -1.03433          0.92169        -93.4805
                               0               0                0               0         0.921822        -93.4682         0.343089        -1.04456
                               0               0                0               0         0.146987         8.58999        0.0964272         30.7761
                               0               0                0               0        0.0963745         30.7977         0.147021         8.56912
76.125                         0               0                0               0         0.341879        -2.63257         0.922896        -95.0401
                               0               0                0               0         0.923003        -95.0262         0.341743        -2.64671
                               0               0                0               0         0.144002           7.337        0.0963961         28.2152
                               0               0                0               0        0.0963361         28.2321         0.144038         7.31324
76.17                          0               0                0               0         0.340476        -4.24717         0.924157        -96.6098
                               0               0                0               0         0.924236        -96.5945         0.340352         -4.2644
                               0               0                0               0         0.140891         6.08293        0.0963186          25.639
                               0               0                0               0        0.0962524         25.6513         0.140928         6.05604
76.215                         0               0                0               0         0.339028        -5.87321         0.925437        -98.1868
                               0               0                0               0         0.925489        -98.1706         0.338919         -5.8927
                               0               0                0               0         0.137652         4.83292        0.0961885         23.0527
                               0               0                0               0        0.0961171         23.0605          0.13769         4.80295
76.26                          0               0                0               0         0.337535        -7.50594           0.9267        -99.7687
                               0               0                0               0         0.926728         -99.752          0.33744        -7.52689
                               0               0                0               0         0.134286         3.59263            0.096          20.461
                               0               0                0               0         0.095924          20.465         0.134325         3.55993
76.305                         0               0                0               0         0.335996         -9.1409         0.927909        -101.353
                               0               0                0               0         0.927917        -101.336         0.335915        -9.16253
                               0               0                0               0         0.130793         2.36834        0.0957477         17.8686
                               0               0                0               0         0.095668         17.8694         0.130833         2.33351
76.35                          0               0                0               0         0.334409        -10.7739         0.929028        -102.938
                               0               0                0               0         0.929022        -102.922          0.33434        -10.7956
                               0               0                0               0         0.127177         1.16698        0.0954273         15.2796
                               0               0                0               0        0.0953446         15.2781         0.127217         1.13084
76.395                         0               0                0               0         0.332772        -12.4011         0.930023        -104.522
                               0               0                0               0         0.930008        -104.507         0.332714        -12.4222
                               0               0                0               0         0.123441     -0.00381488        0.0950353         12.6983
                               0               0                0               0        0.0949501         12.6953         0.123482      -0.0402613
76.44                          0               0                0               0         0.331083        -14.0189          0.93086        -106.103
                               0               0                0               0         0.930844        -106.089         0.331033        -14.0391
                               0               0                0               0         0.119592        -1.13557        0.0945691         10.1283
                               0               0                0               0        0.0944823         10.1247         0.119634        -1.17121
76.485                         0               0                0               0         0.329341        -15.6243         0.931511        -107.679
                               0               0                0               0           0.9315        -107.667         0.329298        -15.6431
                               0               0                0               0         0.115638        -2.21894        0.0940274         7.57343
                               0               0                0               0        0.0939395         7.56987         0.115682        -2.25263
76.53                          0               0                0               0         0.327546        -17.2144         0.931949         -109.25
                               0               0                0               0         0.931949        -109.239         0.327507        -17.2316
                               0               0                0               0         0.111589        -3.24362        0.0934098         5.03693
                               0               0                0               0        0.0933216         5.03417         0.111635        -3.27424
76.575                         0               0                0               0         0.325698        -18.7866         0.932153        -110.814
                               0               0                0               0         0.932169        -110.805         0.325662        -18.8021
                               0               0                0               0         0.107456        -4.19821        0.0927169         2.52202
                               0               0                0               0        0.0926292         2.52057         0.107506        -4.22478
76.62                          0               0                0               0         0.323798        -20.3389         0.932103         -112.37
                               0               0                0               0          0.93214        -112.362         0.323764        -20.3525
                               0               0                0               0         0.103253        -5.07016        0.0919506       0.0316392
                               0               0                0               0        0.0918642       0.0318358         0.103307        -5.09189
76.665                         0               0                0               0          0.32185        -21.8693         0.931787        -113.916
                               0               0                0               0         0.931846         -113.91         0.321817         -21.881
                               0               0                0               0        0.0989948        -5.84555        0.0911134        -2.43154
                               0               0                0               0         0.091029        -2.42957        0.0990551        -5.86196
76.71                          0               0                0               0         0.319857        -23.3761         0.931195        -115.453
                               0               0                0               0         0.931276        -115.448         0.319825         -23.386
                               0               0                0               0        0.0946982        -6.50903        0.0902088        -4.86509
                               0               0                0               0        0.0901273        -4.86144        0.0947656        -6.52003
76.755                         0               0                0               0         0.317824        -24.8581         0.930321        -116.978
                               0               0                0               0         0.930423        -116.975         0.317793        -24.8663
                               0               0                0               0        0.0903816        -7.04357        0.0892412         -7.2669
                               0               0                0               0         0.089163        -7.26186         0.090457        -7.04955
76.8                           0               0                0               0         0.315758        -26.3141         0.929164        -118.492
                               0               0                0               0         0.929284         -118.49         0.315728        -26.3207
                               0               0                0               0        0.0860649         -7.4303        0.0882154        -9.63513
                               0               0                0               0        0.0881411        -9.62923        0.0861489         -7.4322
76.845                         0               0                0               0         0.313664        -27.7432         0.927726        -119.993
                               0               0                0               0         0.927861        -119.992         0.313635        -27.7485
                               0               0                0               0        0.0817693        -7.64828        0.0871368        -11.9683
                               0               0                0               0        0.0870665        -11.9622        0.0818618        -7.64764
76.89                          0               0                0               0         0.311549        -29.1448         0.926014         -121.48
                               0               0                0               0         0.926158         -121.48         0.311524         -29.149
                               0               0                0               0        0.0775175        -7.67431        0.0860111        -14.2652
                               0               0                0               0        0.0859449        -14.2598        0.0776177        -7.67327
76.935                         0               0                0               0         0.309423        -30.5186         0.924037        -122.954
                               0               0                0               0         0.924183        -122.954           0.3094        -30.5219
                               0               0                0               0        0.0733335        -7.48271        0.0848442        -16.5249
                               0               0                0               0         0.084782        -16.5212        0.0734398        -7.48399
76.98                          0               0                0               0         0.307292        -31.8642         0.921807        -124.412
                               0               0                0               0          0.92195        -124.413         0.307273        -31.8669
                               0               0                0               0        0.0692425         -7.0452        0.0836424        -18.7471
                               0               0                0               0        0.0835835        -18.7461        0.0693524        -7.05204
77.025                         0               0                0               0         0.305165        -33.1816         0.919341        -125.855
                               0               0                0               0         0.919473        -125.856         0.305152        -33.1841
                               0               0                0               0        0.0652715        -6.33097        0.0824116        -20.9314
                               0               0                0               0        0.0823554        -20.9343        0.0653814         -6.3469
77.07                          0               0                0               0          0.30305        -34.4711         0.916656        -127.283
                               0               0                0               0         0.916769        -127.283         0.303044        -34.4738
                               0               0                0               0        0.0614487        -5.30696         0.081158        -23.0782
                               0               0                0               0        0.0811035         -23.086        0.0615542        -5.33554
77.115                         0               0                0               0         0.300957         -35.733         0.913772        -128.694
                               0               0                0               0          0.91386        -128.694         0.300958        -35.7361
                               0               0                0               0        0.0578043        -3.93865        0.0798873        -25.1879
                               0               0                0               0        0.0798332        -25.2016        0.0579001        -3.98307
77.16                          0               0                0               0         0.298894        -36.9679         0.910709        -130.088
                               0               0                0               0         0.910766        -130.087         0.298902        -36.9719
                               0               0                0               0        0.0543701        -2.19156        0.0786052        -27.2614
                               0               0                0               0        0.0785502        -27.2819        0.0544504        -2.25402
77.205                         0               0                0               0         0.296869        -38.1765         0.907492        -131.465