! TOUCHSTONE file generated by CST MICROWAVE STUDIO
! Date and time: Sun Jun 20 22:37:29 2021
! Project name: HIPS_d_sweep.cst
! Parameters = {fmax=120; fmin=75; b=0.46; d=21.25; a=0.63; phi=0; theta=0}
! Header version: 2018
! Port assignment regex: !\s*Touchstone port\s*([0-9]+)\s*=\s*(CST MWS port|CST DS port)\s*([0-9]+|Zmin|Zmax)\s*\(\"(.*)\"\)(\s*mode\s*([0-9]+))?.*
! Touchstone port assignment:
! Touchstone port 1 = CST MWS port Zmin ("") mode 1
! Touchstone port 2 = CST MWS port Zmin ("") mode 2
! Touchstone port 3 = CST MWS port Zmax ("") mode 1
! Touchstone port 4 = CST MWS port Zmax ("") mode 2
! S-Parameters are not renormalized. Unphysical impedance of 0 will be written to the file.
# GHz S MA R 0
75                             0               0                0               0         0.103373        -27.8699          0.99119        -119.459
                               0               0                0               0         0.991289        -119.467         0.103387        -27.7799
                               0               0                0               0        0.0678728        -25.7349         0.043954        -20.4247
                               0               0                0               0        0.0439606        -20.4003        0.0678976        -25.7826
75.045                         0               0                0               0         0.106612        -28.6891         0.991847        -120.169
                               0               0                0               0         0.991891        -120.174          0.10663        -28.5882
                               0               0                0               0        0.0655689        -26.2029        0.0444337        -21.4102
                               0               0                0               0        0.0443993        -21.3917        0.0655945        -26.2504
75.09                          0               0                0               0         0.109679         -29.574          0.99215        -120.952
                               0               0                0               0         0.992159        -120.956         0.109704        -29.4653
                               0               0                0               0        0.0629812        -26.6976        0.0447884        -22.4434
                               0               0                0               0        0.0447285        -22.4364        0.0630074        -26.7462
75.135                         0               0                0               0         0.112536        -30.5264         0.992181        -121.809
                               0               0                0               0         0.992174        -121.813         0.112567        -30.4131
                               0               0                0               0        0.0601138        -27.2181        0.0450137        -23.5488
                               0               0                0               0        0.0449427        -23.5537        0.0601406         -27.269
75.18                          0               0                0               0         0.115146        -31.5479          0.99202         -122.74
                               0               0                0               0         0.992014        -122.744         0.115181        -31.4331
                               0               0                0               0        0.0569714        -27.7605         0.045109        -24.7474
                               0               0                0               0        0.0450385        -24.7608        0.0569984        -27.8151
75.225                         0               0                0               0         0.117472          -32.64         0.991739        -123.745
                               0               0                0               0         0.991747        -123.749         0.117508        -32.5262
                               0               0                0               0        0.0535584        -28.3175        0.0450764        -26.0564
                               0               0                0               0        0.0450151         -26.073        0.0535855        -28.3772
75.27                          0               0                0               0         0.119483        -33.8033         0.991398        -124.821
                               0               0                0               0         0.991431        -124.827         0.119516        -33.6929
                               0               0                0               0        0.0498795        -28.8768        0.0449195        -27.4889
                               0               0                0               0        0.0448728        -27.5028        0.0499065         -28.943
75.315                         0               0                0               0         0.121154        -35.0381         0.991052        -125.967
                               0               0                0               0         0.991115        -125.974         0.121179        -34.9329
                               0               0                0               0        0.0459396        -29.4188        0.0446428        -29.0544
                               0               0                0               0        0.0446132        -29.0602        0.0459663         -29.493
75.36                          0               0                0               0         0.122462        -36.3441         0.990742        -127.182
                               0               0                0               0         0.990839        -127.189         0.122476        -36.2453
                               0               0                0               0        0.0417444        -29.9125        0.0442505        -30.7593
                               0               0                0               0        0.0442382        -30.7529        0.0417705        -29.9969
75.405                         0               0                0               0         0.123393        -37.7201         0.990501        -128.462
                               0               0                0               0         0.990631         -128.47         0.123393        -37.6284
                               0               0                0               0        0.0373004         -30.308        0.0437469        -32.6068
                               0               0                0               0          0.04375         -32.586        0.0373255        -30.4053
75.45                          0               0                0               0         0.123941        -39.1645         0.990352        -129.805
                               0               0                0               0         0.990511        -129.813         0.123925        -39.0797
                               0               0                0               0        0.0326159        -30.5213        0.0431352        -34.5984
                               0               0                0               0        0.0431508        -34.5627        0.0326397        -30.6353
75.495                         0               0                0               0         0.124105        -40.6746         0.990306        -131.208
                               0               0                0               0         0.990489        -131.216         0.124073        -40.5963
                               0               0                0               0        0.0277028           -30.4        0.0424181        -36.7337
                               0               0                0               0        0.0424426        -36.6847        0.0277246         -30.537
75.54                          0               0                0               0         0.123892        -42.2475         0.990368        -132.668
                               0               0                0               0         0.990568        -132.675         0.123844        -42.1744
                               0               0                0               0        0.0225793        -29.6405         0.041598         -39.011
                               0               0                0               0        0.0416274        -38.9519        0.0225984        -29.8111
75.585                         0               0                0               0         0.123313        -43.8796         0.990534        -134.181
                               0               0                0               0         0.990743        -134.188         0.123253        -43.8101
                               0               0                0               0        0.0172809        -27.5429        0.0406768        -41.4279
                               0               0                0               0        0.0407073        -41.3636        0.0172957        -27.7683
75.63                          0               0                0               0         0.122388        -45.5667         0.990793        -135.746
                               0               0                0               0         0.991003        -135.752         0.122319        -45.4989
                               0               0                0               0        0.0118974        -22.0964        0.0396566        -43.9813
                               0               0                0               0        0.0396844        -43.9178         0.011904        -22.4259
75.675                         0               0                0               0         0.121138        -47.3044         0.991129        -137.358
                               0               0                0               0         0.991331        -137.363         0.121067         -47.236
                               0               0                0               0       0.00679483        -5.12941        0.0385394        -46.6683
                               0               0                0               0        0.0385616        -46.6126       0.00678023        -5.68597
75.72                          0               0                0               0          0.11959        -49.0879         0.991522        -139.015
                               0               0                0               0         0.991707        -139.019         0.119521        -49.0167
                               0               0                0               0       0.00445616         54.3611        0.0373281        -49.4861
                               0               0                0               0        0.0373423        -49.4457        0.0043931         54.1105
75.765                         0               0                0               0          0.11777        -50.9125         0.991947        -140.714
                               0               0                0               0         0.992108        -140.717         0.117711        -50.8361
                               0               0                0               0       0.00834227         99.9809        0.0360261        -52.4327
                               0               0                0               0        0.0360307        -52.4153       0.00828624         100.197
75.81                          0               0                0               0         0.115709        -52.7731         0.992378        -142.452
                               0               0                0               0         0.992509        -142.453         0.115665        -52.6893
                               0               0                0               0        0.0142064         111.967        0.0346378        -55.5071
                               0               0                0               0        0.0346321        -55.5206        0.0141595         112.133
75.855                         0               0                0               0         0.113434        -54.6647         0.992788        -144.226
                               0               0                0               0         0.992885        -144.225         0.113412        -54.5718
                               0               0                0               0        0.0205496         115.858        0.0331688        -58.7107
                               0               0                0               0        0.0331529        -58.7622        0.0205065         115.978
75.9                           0               0                0               0         0.110975        -56.5825          0.99315        -146.033
                               0               0                0               0         0.993212        -146.031         0.110978        -56.4789
                               0               0                0               0        0.0271267         117.072        0.0316256        -62.0473
                               0               0                0               0        0.0316005        -62.1433         0.027085         117.161
75.945                         0               0                0               0         0.108358        -58.5216          0.99344         -147.87
                               0               0                0               0         0.993468        -147.866          0.10839        -58.4063
                               0               0                0               0        0.0338587         117.091         0.030016        -65.5243
                               0               0                0               0        0.0299837        -65.6702         0.033817          117.16
75.99                          0               0                0               0          0.10561        -60.4771         0.993637        -149.734
                               0               0                0               0         0.993634        -149.729          0.10567        -60.3497
                               0               0                0               0        0.0407023          116.47         0.028349        -69.1546
                               0               0                0               0        0.0283122        -69.3538        0.0406597         116.526
76.035                         0               0                0               0         0.102752        -62.4443         0.993724        -151.622
                               0               0                0               0         0.993696        -151.616         0.102841        -62.3049
                               0               0                0               0        0.0476251         115.464        0.0266347        -72.9574
                               0               0                0               0        0.0265965        -73.2111        0.0475811         115.511
76.08                          0               0                0               0        0.0998068        -64.4183         0.993691        -153.532
                               0               0                0               0         0.993647        -153.524        0.0999205         -64.268
                               0               0                0               0         0.054599         114.207        0.0248843        -76.9611
                               0               0                0               0        0.0248485        -77.2673        0.0545535         114.248
76.125                         0               0                0               0        0.0967923        -66.3944         0.993538        -155.459
                               0               0                0               0         0.993487        -155.451        0.0969254        -66.2347
                               0               0                0               0        0.0615978         112.778        0.0231106        -81.2056
                               0               0                0               0        0.0230808        -81.5585        0.0615508         112.815
76.17                          0               0                0               0        0.0937251        -68.3674          0.99327          -157.4
                               0               0                0               0         0.993226        -157.392        0.0938703        -68.2009
                               0               0                0               0        0.0685968         111.227        0.0213277        -85.7463
                               0               0                0               0        0.0213071         -86.135        0.0685487         111.263
76.215                         0               0                0               0          0.09062         -70.332         0.992905        -159.352
                               0               0                0               0         0.992878        -159.343         0.090768        -70.1622
                               0               0                0               0        0.0755724         109.589         0.019552        -90.6589
                               0               0                0               0        0.0195427        -91.0661        0.0755237         109.623
76.26                          0               0                0               0        0.0874898        -72.2825         0.992468         -161.31
                               0               0                0               0         0.992469          -161.3        0.0876299        -72.1139
                               0               0                0               0        0.0825022         107.887        0.0178023        -96.0449
                               0               0                0               0        0.0178051        -96.4461        0.0824537         107.922
76.305                         0               0                0               0        0.0843463        -74.2125         0.991993         -163.27
                               0               0                0               0         0.992028        -163.259        0.0844671        -74.0507
                               0               0                0               0        0.0893648          106.14        0.0161014        -102.039
                               0               0                0               0        0.0161145        -102.402        0.0893176         106.176
76.35                          0               0                0               0        0.0812006         -76.115         0.991517        -165.225
                               0               0                0               0         0.991586        -165.215        0.0812902        -75.9669
                               0               0                0               0        0.0961399         104.361        0.0144771        -108.813
                               0               0                0               0        0.0144961        -109.099        0.0960951         104.398
76.395                         0               0                0               0        0.0780632        -77.9818         0.991075        -167.172
                               0               0                0               0         0.991172        -167.162        0.0781108        -77.8556
                               0               0                0               0         0.102808          102.56        0.0129638        -116.578
                               0               0                0               0        0.0129813        -116.746         0.102767         102.599
76.44                          0               0                0               0        0.0749451        -79.8035         0.990693        -169.104
                               0               0                0               0         0.990801        -169.094        0.0749416        -79.7086
                               0               0                0               0         0.109351         100.745        0.0116042        -125.569
                               0               0                0               0        0.0116103        -125.586         0.109314         100.785
76.485                         0               0                0               0        0.0718582        -81.5691         0.990377        -171.017
                               0               0                0               0         0.990473        -171.008        0.0717977         -81.516
                               0               0                0               0         0.115748         98.9197        0.0104492        -135.985
                               0               0                0               0        0.0104329        -135.846         0.115717         98.9621
76.53                          0               0                0               0        0.0688157        -83.2653         0.990107        -172.909
                               0               0                0               0         0.990163        -172.901        0.0686967        -83.2648
                               0               0                0               0         0.121981         97.0883       0.00955427        -147.883
                               0               0                0               0       0.00950665        -147.632         0.121956         97.1318
76.575                         0               0                0               0        0.0658326        -84.8762         0.989826        -174.779
                               0               0                0               0         0.989814        -174.772        0.0656591        -84.9384
                               0               0                0               0          0.12803         95.2512       0.00896844        -161.022
                               0               0                0               0       0.00888671         -160.76          0.12801         95.2955
76.62                          0               0                0               0        0.0629261        -86.3825         0.989435        -176.629
                               0               0                0               0         0.989338        -176.621        0.0627083        -86.5146
                               0               0                0               0         0.133872         93.4079       0.00871647        -174.786
                               0               0                0               0       0.00860684        -174.633         0.133858         93.4523
76.665                         0               0                0               0        0.0601156        -87.7608         0.988798        -178.461
                               0               0                0               0         0.988615        -178.453        0.0598692        -87.9643
                               0               0                0               0         0.139487         91.5569       0.00878397         171.663
                               0               0                0               0       0.00866017         171.634         0.139477         91.6008
76.71                          0               0                0               0        0.0574223        -88.9827         0.987752         179.718
                               0               0                0               0         0.987503         179.729        0.0571666        -89.2506
                               0               0                0               0         0.144852         89.6962         0.009119         159.048
                               0               0                0               0       0.00899666         158.847         0.144844          89.739
76.755                         0               0                0               0        0.0548684        -90.0145          0.98613         177.908
                               0               0                0               0         0.985849         177.921        0.0546229        -90.3288
                               0               0                0               0         0.149946         87.8241       0.00965024         147.744
                               0               0                0               0       0.00954133         147.439         0.149938         87.8655
76.8                           0               0                0               0        0.0524759        -90.8182         0.983795         176.108
                               0               0                0               0         0.983521         176.122        0.0522561        -91.1498
                               0               0                0               0         0.154747         85.9401        0.0103072         137.801
                               0               0                0               0        0.0102178         137.471         0.154738         85.9796
76.845                         0               0                0               0        0.0502652        -91.3531         0.980673         174.321
                               0               0                0               0         0.980437         174.336         0.050079        -91.6654
                               0               0                0               0         0.159238         84.0452        0.0110314         129.081
                               0               0                0               0        0.0109625         128.785         0.159226         84.0828
76.89                          0               0                0               0        0.0482538        -91.5807         0.976764         172.552
                               0               0                0               0         0.976579         172.566        0.0481004         -91.836
                               0               0                0               0         0.163405         82.1425        0.0117792         121.392
                               0               0                0               0        0.0117286         121.162         0.163391         82.1783
76.935                         0               0                0               0        0.0464562        -91.4709         0.972138         170.805
                               0               0                0               0            0.972         170.817        0.0463278        -91.6389
                               0               0                0               0         0.167241         80.2372        0.0125195         114.556
                               0               0                0               0        0.0124836           114.4         0.167222         80.2715
76.98                          0               0                0               0        0.0448841        -91.0093         0.966909         169.086
                               0               0                0               0         0.966806         169.095        0.0447702        -91.0734
                               0               0                0               0         0.170742         78.3361        0.0132312         108.425
                               0               0                0               0        0.0132065         108.337         0.170719         78.3692
77.025                         0               0                0               0        0.0435473        -90.2039         0.961216         167.395
                               0               0                0               0         0.961131         167.402        0.0434393        -90.1642
                               0               0                0               0         0.173912         76.4472        0.0139007         102.891
                               0               0                0               0        0.0138843         102.856         0.173885         76.4795
77.07                          0               0                0               0        0.0424547        -89.0882         0.955193         165.735
                               0               0                0               0         0.955111         165.741        0.0423479          -88.96
                               0               0                0               0          0.17676         74.5789        0.0145201         97.8737
                               0               0                0               0          0.01451         97.8734         0.176731         74.6106
77.115                         0               0                0               0        0.0416132        -87.7208          0.94896         164.106
                               0               0                0               0         0.948871          164.11        0.0415073        -87.5297
                               0               0                0               0         0.179302         72.7391        0.0150858         93.3135
                               0               0                0               0        0.0150807         93.3322         0.179272         72.7705
77.16                          0               0                0               0         0.041026          -86.18         0.942621         162.506
                               0               0                0               0          0.94252          162.51        0.0409235        -85.9562
                               0               0                0               0         0.181559         70.9347        0.0155977         89.1669
                               0               0                0               0        0.0155969         89.1906         0.181528         70.9659
77.205                         0               0                0               0        0.0406906        -84.5553         0.936259         160.935