! TOUCHSTONE file generated by CST MICROWAVE STUDIO
! Date and time: Sun Jun 20 22:37:04 2021
! Project name: HIPS_d_sweep.cst
! Parameters = {fmax=120; fmin=75; b=0.46; d=18.35; a=0.63; phi=0; theta=0}
! Header version: 2018
! Port assignment regex: !\s*Touchstone port\s*([0-9]+)\s*=\s*(CST MWS port|CST DS port)\s*([0-9]+|Zmin|Zmax)\s*\(\"(.*)\"\)(\s*mode\s*([0-9]+))?.*
! Touchstone port assignment:
! Touchstone port 1 = CST MWS port Zmin ("") mode 1
! Touchstone port 2 = CST MWS port Zmin ("") mode 2
! Touchstone port 3 = CST MWS port Zmax ("") mode 1
! Touchstone port 4 = CST MWS port Zmax ("") mode 2
! S-Parameters are not renormalized. Unphysical impedance of 0 will be written to the file.
# GHz S MA R 0
75                             0               0                0               0         0.300607        -61.5558         0.950325        -150.961
                               0               0                0               0          0.95029        -150.971           0.3007        -61.5494
                               0               0                0               0        0.0461774         92.6604        0.0661317        -72.3127
                               0               0                0               0        0.0661205        -72.2844        0.0461126         92.6699
75.045                         0               0                0               0         0.303138          -62.34         0.950261        -151.601
                               0               0                0               0         0.950258         -151.64         0.303442        -62.3069
                               0               0                0               0        0.0477266         92.9278        0.0663147        -73.6815
                               0               0                0               0        0.0662827        -73.6701         0.047655         92.9514
75.09                          0               0                0               0         0.305547        -63.1371         0.949905        -152.294
                               0               0                0               0         0.949958        -152.351         0.305969        -63.0855
                               0               0                0               0        0.0494541         93.1446        0.0663928        -75.1139
                               0               0                0               0        0.0663487        -75.1149        0.0493784         93.1756
75.135                         0               0                0               0         0.307787        -63.9509          0.94931        -153.044
                               0               0                0               0         0.949418        -153.106         0.308249        -63.8893
                               0               0                0               0        0.0513644         93.3149        0.0663623        -76.6224
                               0               0                0               0        0.0663136         -76.631        0.0512871         93.3484
75.18                          0               0                0               0         0.309811        -64.7863         0.948532        -153.851
                               0               0                0               0         0.948677        -153.912         0.310252        -64.7229
                               0               0                0               0        0.0534605         93.4419        0.0662222        -78.2201
                               0               0                0               0        0.0661749        -78.2313         0.053384         93.4744
75.225                         0               0                0               0         0.311576        -65.6491          0.94763        -154.717
                               0               0                0               0         0.947781        -154.769         0.311954        -65.5913
                               0               0                0               0        0.0557442          93.528        0.0659737          -79.92
                               0               0                0               0        0.0659321        -79.9289        0.0556707         93.5572
75.27                          0               0                0               0         0.313045        -66.5458         0.946662        -155.642
                               0               0                0               0         0.946783        -155.683         0.313333        -66.4999
                               0               0                0               0         0.058216         93.5741        0.0656207        -81.7346
                               0               0                0               0        0.0655878        -81.7368         0.058147          93.599
75.315                         0               0                0               0         0.314189        -67.4833         0.945682        -156.627
                               0               0                0               0         0.945739        -156.653         0.314378         -67.454
                               0               0                0               0        0.0608749         93.5804         0.065169        -83.6759
                               0               0                0               0        0.0651463        -83.6678        0.0608116         93.6004
75.36                          0               0                0               0         0.314986        -68.4687         0.944741         -157.67
                               0               0                0               0         0.944706        -157.682          0.31508        -68.4585
                               0               0                0               0        0.0637189         93.5456        0.0646266        -85.7547
                               0               0                0               0        0.0646146        -85.7335        0.0636617         93.5611
75.405                         0               0                0               0         0.315428        -69.5083         0.943884        -158.771
                               0               0                0               0         0.943738        -158.769         0.315442        -69.5181
                               0               0                0               0        0.0667446         93.4678        0.0640031        -87.9806
                               0               0                0               0        0.0640014        -87.9446        0.0666936         93.4794
75.45                          0               0                0               0         0.315517        -70.6078          0.94315        -159.927
                               0               0                0               0         0.942885        -159.913          0.31547        -70.6362
                               0               0                0               0        0.0699475         93.3444        0.0633091        -90.3614
                               0               0                0               0        0.0633167          -90.31        0.0699025         93.3529
75.495                         0               0                0               0         0.315264        -71.7714         0.942569        -161.136
                               0               0                0               0         0.942189        -161.114         0.315179        -71.8155
                               0               0                0               0        0.0733223         93.1721         0.062556        -92.9037
                               0               0                0               0        0.0625716        -92.8372        0.0732823         93.1784
75.54                          0               0                0               0         0.314688        -73.0017         0.942164        -162.396
                               0               0                0               0         0.941685        -162.368         0.314587        -73.0572
                               0               0                0               0        0.0768624         92.9476        0.0617557        -95.6118
                               0               0                0               0        0.0617779        -95.5315        0.0768263         92.9526
75.585                         0               0                0               0         0.313816        -74.2994         0.941949        -163.704
                               0               0                0               0         0.941396        -163.674         0.313718        -74.3613
                               0               0                0               0        0.0805602         92.6673        0.0609198        -98.4885
                               0               0                0               0        0.0609472        -98.3966        0.0805267          92.672
75.63                          0               0                0               0         0.312675         -75.663         0.941931        -165.057
                               0               0                0               0         0.941335        -165.028         0.312594        -75.7262
                               0               0                0               0        0.0844072          92.328        0.0600596        -101.534
                               0               0                0               0        0.0600913        -101.434        0.0843749          92.333
75.675                         0               0                0               0         0.311295        -77.0897         0.942108        -166.452
                               0               0                0               0         0.941505        -166.426         0.311241        -77.1492
                               0               0                0               0        0.0883937         91.9264        0.0591861        -104.749
                               0               0                0               0        0.0592211        -104.642        0.0883612         91.9324
75.72                          0               0                0               0         0.309705        -78.5745         0.942471        -167.885
                               0               0                0               0         0.941897        -167.865         0.309684        -78.6262
                               0               0                0               0        0.0925088         91.4598        0.0583093        -108.128
                               0               0                0               0         0.058347         -108.02        0.0924748         91.4675
75.765                         0               0                0               0          0.30793        -80.1117         0.943006        -169.354
                               0               0                0               0         0.942496        -169.342         0.307943        -80.1522
                               0               0                0               0        0.0967407         90.9261        0.0574384        -111.668
                               0               0                0               0        0.0574784        -111.561         0.096704         90.9358
75.81                          0               0                0               0         0.305994        -81.6941         0.943692        -170.855
                               0               0                0               0         0.943275        -170.852          0.30604        -81.7213
                               0               0                0               0         0.101076         90.3234        0.0565816        -115.362
                               0               0                0               0        0.0566238         -115.26         0.101036         90.3354
75.855                         0               0                0               0         0.303915        -83.3143         0.944503        -172.386
                               0               0                0               0         0.944204        -172.392         0.303992         -83.327
                               0               0                0               0           0.1055         89.6506        0.0557463        -119.203
                               0               0                0               0        0.0557904        -119.109         0.105456         89.6651
75.9                           0               0                0               0          0.30171        -84.9644         0.945411        -173.942
                               0               0                0               0         0.945246        -173.958         0.301816        -84.9624
                               0               0                0               0         0.109998         88.9073        0.0549388         -123.18
                               0               0                0               0        0.0549848        -123.097         0.109949         88.9243
75.945                         0               0                0               0         0.299392        -86.6365         0.946383        -175.522
                               0               0                0               0          0.94636        -175.547         0.299523        -86.6207
                               0               0                0               0         0.114552         88.0934        0.0541645        -127.282
                               0               0                0               0        0.0542122        -127.213         0.114499          88.113
75.99                          0               0                0               0         0.296974        -88.3228         0.947386        -177.123
                               0               0                0               0         0.947505        -177.157         0.297126        -88.2948
                               0               0                0               0         0.119144         87.2099         0.053428        -131.498
                               0               0                0               0        0.0534771        -131.445         0.119086         87.2318
76.035                         0               0                0               0         0.294464         -90.016         0.948384        -178.741
                               0               0                0               0         0.948638        -178.782         0.294636        -89.9779
                               0               0                0               0         0.123754          86.258        0.0527327        -135.814
                               0               0                0               0        0.0527829        -135.777         0.123694          86.282
76.08                          0               0                0               0         0.291873        -91.7092         0.949341         179.626
                               0               0                0               0         0.949714         179.578         0.292061        -91.6633
                               0               0                0               0         0.128363         85.2398        0.0520815        -140.215
                               0               0                0               0        0.0521321        -140.196           0.1283         85.2656
76.125                         0               0                0               0         0.289209         -93.396         0.950223         177.981
                               0               0                0               0         0.950694         177.927         0.289411         -93.345
                               0               0                0               0         0.132949         84.1578        0.0514764        -144.687
                               0               0                0               0        0.0515267        -144.685         0.132885          84.185
76.17                          0               0                0               0         0.286481        -95.0707         0.950995         176.325
                               0               0                0               0         0.951537         176.269         0.286695        -95.0173
                               0               0                0               0          0.13749         83.0153        0.0509185        -149.213
                               0               0                0               0        0.0509677        -149.229         0.137426         83.0433
76.215                         0               0                0               0         0.283698        -96.7281         0.951625         174.662
                               0               0                0               0         0.952208         174.604         0.283922        -96.6748
                               0               0                0               0         0.141966         81.8158        0.0504084        -153.778
                               0               0                0               0        0.0504553         -153.81         0.141903         81.8442
76.26                          0               0                0               0         0.280869        -98.3637         0.952083         172.994
                               0               0                0               0         0.952675         172.936         0.281101        -98.3129
                               0               0                0               0         0.146353         80.5635        0.0499458        -158.366
                               0               0                0               0        0.0499895        -158.414         0.146293         80.5916
76.305                         0               0                0               0         0.278005        -99.9736         0.952341         171.323
                               0               0                0               0          0.95291         171.267         0.278241        -99.9274
                               0               0                0               0          0.15063         79.2628        0.0495301         -162.96
                               0               0                0               0        0.0495694        -163.022         0.150575         79.2901
76.35                          0               0                0               0         0.275116        -101.555         0.952377         169.651
                               0               0                0               0         0.952889         169.599         0.275354        -101.515
                               0               0                0               0         0.154778         77.9188        0.0491599        -167.546
                               0               0                0               0        0.0491939        -167.621         0.154728         77.9446
76.395                         0               0                0               0         0.272212        -103.104         0.952168         167.981
                               0               0                0               0         0.952594         167.935         0.272449        -103.072
                               0               0                0               0         0.158777         76.5363        0.0488338         -172.11
                               0               0                0               0        0.0488613        -172.194         0.158733         76.5601
76.44                          0               0                0               0         0.269305        -104.619         0.951699         166.315
                               0               0                0               0         0.952011         166.276         0.269537        -104.596
                               0               0                0               0         0.162609         75.1209        0.0485495        -176.636
                               0               0                0               0        0.0485698        -176.729         0.162572          75.142
76.485                         0               0                0               0         0.266404        -106.099         0.950956         164.654
                               0               0                0               0         0.951131         164.624         0.266629        -106.085
                               0               0                0               0         0.166258         73.6778        0.0483049         178.887
                               0               0                0               0        0.0483171         178.788         0.166228         73.6958
76.53                          0               0                0               0         0.263521        -107.542         0.949932         163.002
                               0               0                0               0         0.949949         162.982         0.263736        -107.537
                               0               0                0               0         0.169712         72.2125        0.0480974          174.47
                               0               0                0               0        0.0481011         174.368         0.169688         72.2269
76.575                         0               0                0               0         0.260666        -108.947         0.948621         161.359
                               0               0                0               0         0.948467          161.35         0.260869        -108.952
                               0               0                0               0         0.172957         70.7303        0.0479245         170.125
                               0               0                0               0        0.0479194         170.021         0.172941         70.7407
76.62                          0               0                0               0          0.25785        -110.315         0.947023         159.728
                               0               0                0               0          0.94669         159.731         0.258037        -110.329
                               0               0                0               0         0.175986         69.2364        0.0477835         165.859
                               0               0                0               0        0.0477695         165.756         0.175976         69.2425
76.665                         0               0                0               0         0.255082        -111.644         0.945141          158.11
                               0               0                0               0         0.944624         158.126         0.255252        -111.667
                               0               0                0               0         0.178793         67.7359        0.0476718         161.681
                               0               0                0               0        0.0476492         161.579         0.178788         67.7376
76.71                          0               0                0               0          0.25237        -112.936         0.942983         156.507
                               0               0                0               0         0.942284         156.536         0.252522        -112.967
                               0               0                0               0         0.181373         66.2335         0.047587         157.596
                               0               0                0               0        0.0475562         157.498         0.181372         66.2307
76.755                         0               0                0               0         0.249724         -114.19         0.940558          154.92
                               0               0                0               0         0.939683         154.962         0.249857        -114.228
                               0               0                0               0         0.183726         64.7336        0.0475267          153.61
                               0               0                0               0        0.0474882         153.517         0.183728         64.7263
76.8                           0               0                0               0         0.247152        -115.408          0.93788         153.351
                               0               0                0               0          0.93684         153.406         0.247264        -115.452
                               0               0                0               0         0.185852         63.2402        0.0474886         149.726
                               0               0                0               0        0.0474433         149.639         0.185856         63.2286
76.845                         0               0                0               0          0.24466        -116.591         0.934965         151.801
                               0               0                0               0         0.933775         151.869         0.244753         -116.64
                               0               0                0               0         0.187755         61.7572        0.0474707         145.946
                               0               0                0               0        0.0474197         145.867         0.187759         61.7415
76.89                          0               0                0               0         0.242254         -117.74         0.931833          150.27
                               0               0                0               0         0.930509          150.35         0.242328        -117.793
                               0               0                0               0         0.189439         60.2876        0.0474714         142.274
                               0               0                0               0        0.0474158         142.203         0.189443         60.2683
76.935                         0               0                0               0         0.239941        -118.857         0.928502          148.76
                               0               0                0               0         0.927065          148.85         0.239997        -118.912
                               0               0                0               0         0.190912         58.8345        0.0474889         138.708
                               0               0                0               0        0.0474299         138.646         0.190914         58.8119
76.98                          0               0                0               0         0.237725        -119.943         0.924996         147.272
                               0               0                0               0         0.923467         147.371         0.237766        -119.999
                               0               0                0               0         0.192181         57.4003        0.0475219          135.25
                               0               0                0               0         0.047461         135.196          0.19218         57.3748
77.025                         0               0                0               0         0.235612            -121         0.921337         145.804
                               0               0                0               0          0.91974         145.912         0.235637        -121.056
                               0               0                0               0         0.193255          55.987        0.0475694         131.899
                               0               0                0               0        0.0475078         131.853         0.193251         55.9593
77.07                          0               0                0               0         0.233603         -122.03         0.917549         144.359
                               0               0                0               0         0.915908         144.473         0.233617        -122.085
                               0               0                0               0         0.194144         54.5962        0.0476305         128.653
                               0               0                0               0        0.0475694         128.615         0.194136         54.5668
77.115                         0               0                0               0         0.231702        -123.035         0.913657         142.936
                               0               0                0               0         0.911994         143.054         0.231706        -123.089
                               0               0                0               0         0.194859         53.2294        0.0477044         125.511
                               0               0                0               0        0.0476452          125.48         0.194847         53.1989
77.16                          0               0                0               0         0.229912        -124.017         0.909684         141.535
                               0               0                0               0         0.908024         141.655         0.229909        -124.069
                               0               0                0               0          0.19541         51.8874        0.0477907          122.47
                               0               0                0               0        0.0477346         122.445         0.195394         51.8564
77.205                         0               0                0               0         0.228234        -124.978         0.905654         140.156