! TOUCHSTONE file generated by CST MICROWAVE STUDIO
! Date and time: Sun Jun 20 22:37:17 2021
! Project name: HIPS_d_sweep.cst
! Parameters = {fmax=120; fmin=75; b=0.46; d=19.95; a=0.63; phi=0; theta=0}
! Header version: 2018
! Port assignment regex: !\s*Touchstone port\s*([0-9]+)\s*=\s*(CST MWS port|CST DS port)\s*([0-9]+|Zmin|Zmax)\s*\(\"(.*)\"\)(\s*mode\s*([0-9]+))?.*
! Touchstone port assignment:
! Touchstone port 1 = CST MWS port Zmin ("") mode 1
! Touchstone port 2 = CST MWS port Zmin ("") mode 2
! Touchstone port 3 = CST MWS port Zmax ("") mode 1
! Touchstone port 4 = CST MWS port Zmax ("") mode 2
! S-Parameters are not renormalized. Unphysical impedance of 0 will be written to the file.
# GHz S MA R 0
75                             0               0                0               0          0.19036         116.625         0.979105         27.3624
                               0               0                0               0         0.979333         27.3622         0.190161         116.562
                               0               0                0               0        0.0546184         108.953        0.0435673        -77.0805
                               0               0                0               0        0.0435314        -76.9474        0.0545135         109.015
75.045                         0               0                0               0          0.19371         115.911         0.978599         26.6798
                               0               0                0               0         0.978768         26.6942         0.193503         115.853
                               0               0                0               0        0.0564442         108.318        0.0438421        -78.3671
                               0               0                0               0        0.0438704        -78.3371        0.0563308         108.383
75.09                          0               0                0               0         0.196705         115.145         0.977957         25.9358
                               0               0                0               0         0.978106          25.955         0.196496         115.091
                               0               0                0               0        0.0585449         107.731        0.0440123        -79.8505
                               0               0                0               0        0.0440604        -79.8459        0.0584292         107.794
75.135                         0               0                0               0         0.199332         114.321         0.977229         25.1289
                               0               0                0               0         0.977392         25.1455         0.199126         114.272
                               0               0                0               0        0.0609091         107.163        0.0440774        -81.5223
                               0               0                0               0        0.0441117        -81.4961        0.0607947         107.222
75.18                          0               0                0               0         0.201585         113.437         0.976464         24.2581
                               0               0                0               0         0.976666         24.2668         0.201385          113.39
                               0               0                0               0        0.0635259         106.593         0.044038        -83.3762
                               0               0                0               0         0.044036        -83.3045        0.0634145         106.647
75.225                         0               0                0               0         0.203459         112.488         0.975704         23.3228
                               0               0                0               0         0.975961         23.3206         0.203267         112.444
                               0               0                0               0        0.0663847         106.004        0.0438956        -85.4084
                               0               0                0               0        0.0438453        -85.2834        0.0662765         106.053
75.27                          0               0                0               0         0.204958         111.473         0.974986          22.323
                               0               0                0               0         0.975303         22.3086         0.204773         111.432
                               0               0                0               0        0.0694746         105.381         0.043653        -87.6166
                               0               0                0               0        0.0435513        -87.4418        0.0693693         105.425
75.315                         0               0                0               0         0.206084         110.391         0.974338         21.2587
                               0               0                0               0          0.97471         21.2327         0.205908         110.352
                               0               0                0               0        0.0727849         104.714        0.0433138        -90.0006
                               0               0                0               0        0.0431649         -89.786        0.0726816         104.754
75.36                          0               0                0               0         0.206848         109.244         0.973782         20.1309
                               0               0                0               0         0.974197         20.0949          0.20668         109.207
                               0               0                0               0        0.0763046         103.996        0.0428824        -92.5614
                               0               0                0               0        0.0426957        -92.3208        0.0762022         104.032
75.405                         0               0                0               0          0.20726         108.032         0.973329         18.9405
                               0               0                0               0         0.973769         18.8976         0.207097         107.997
                               0               0                0               0         0.080022          103.22        0.0423645        -95.3016
                               0               0                0               0        0.0421527        -95.0497        0.0799197         103.253
75.45                          0               0                0               0         0.207333          106.76         0.972983         17.6892
                               0               0                0               0         0.973427          17.643         0.207174         106.726
                               0               0                0               0        0.0839254         102.384        0.0417666        -98.2248
                               0               0                0               0        0.0415441        -97.9758        0.0838223         102.415
75.495                         0               0                0               0          0.20708         105.429         0.972741         16.3789
                               0               0                0               0          0.97317         16.3336         0.206924         105.397
                               0               0                0               0        0.0880024         101.485        0.0410962        -101.336
                               0               0                0               0        0.0408775        -101.102         0.087898         101.516
75.54                          0               0                0               0         0.206519         104.045         0.972589         15.0121
                               0               0                0               0         0.972988         14.9717         0.206363         104.013
                               0               0                0               0          0.09224         100.524        0.0403621        -104.641
                               0               0                0               0        0.0401604        -104.431        0.0921339         100.554
75.585                         0               0                0               0         0.205667         102.611         0.972511         13.5915
                               0               0                0               0         0.972872         13.5601         0.205508         102.581
                               0               0                0               0        0.0966244         99.5005         0.039574        -108.146
                               0               0                0               0        0.0394004        -107.965        0.0965167         99.5305
75.63                          0               0                0               0         0.204539         101.132         0.972485         12.1204
                               0               0                0               0         0.972806         12.1012         0.204377         101.103
                               0               0                0               0         0.101141         98.4157        0.0387428        -111.857
                               0               0                0               0        0.0386052        -111.708         0.101032         98.4458
75.675                         0               0                0               0         0.203156         99.6127         0.972486         10.6026
                               0               0                0               0         0.972776         10.5977         0.202989         99.5852
                               0               0                0               0         0.105776         97.2713        0.0378806        -115.782
                               0               0                0               0        0.0377837        -115.662         0.105665         97.3015
75.72                          0               0                0               0         0.201535         98.0587         0.972492           9.042
                               0               0                0               0         0.972764         9.05247         0.201362         98.0327
                               0               0                0               0         0.110511         96.0695        0.0370005        -119.926
                               0               0                0               0        0.0369451        -119.832           0.1104         96.0998
75.765                         0               0                0               0         0.199696         96.4744         0.972481         7.44289
                               0               0                0               0         0.972753         7.46821         0.199517         96.4501
                               0               0                0               0         0.115331         94.8129        0.0361165        -124.294
                               0               0                0               0        0.0361001        -124.218          0.11522         94.8431
75.81                          0               0                0               0         0.197657         94.8645         0.972437         5.80962
                               0               0                0               0         0.972726         5.84785         0.197472          94.842
                               0               0                0               0         0.120217         93.5043        0.0352436        -128.889
                               0               0                0               0        0.0352602        -128.824         0.120108          93.534
75.855                         0               0                0               0         0.195438         93.2333         0.972349         4.14657
                               0               0                0               0          0.97267         4.19435         0.195247         93.2128
                               0               0                0               0         0.125152         92.1466        0.0343972        -133.712
                               0               0                0               0        0.0344383        -133.647         0.125044         92.1757
75.9                           0               0                0               0         0.193058         91.5849         0.972213         2.45792
                               0               0                0               0          0.97257         2.51081         0.192863         91.5664
                               0               0                0               0         0.130115          90.743        0.0335932        -138.757
                               0               0                0               0        0.0336482        -138.686          0.13001         90.7711
75.945                         0               0                0               0         0.190536         89.9228          0.97203        0.747555
                               0               0                0               0          0.97242        0.800389         0.190339         89.9064
                               0               0                0               0         0.135088         89.2969         0.032847        -144.016
                               0               0                0               0        0.0329044        -143.933         0.134986         89.3238
75.99                          0               0                0               0         0.187893         88.2503         0.971808       -0.981059
                               0               0                0               0         0.972214       -0.933605         0.187696         88.2361
                               0               0                0               0         0.140049         87.8118        0.0321733        -149.473
                               0               0                0               0        0.0322219        -149.375         0.139952         87.8371
76.035                         0               0                0               0         0.185147         86.5704         0.971557        -2.72494
                               0               0                0               0         0.971954        -2.68777         0.184951         86.5581
                               0               0                0               0         0.144979          86.291        0.0315858        -155.105
                               0               0                0               0        0.0316152        -154.994         0.144886         86.3146
76.08                          0               0                0               0         0.182318         84.8857         0.971287        -4.48159
                               0               0                0               0         0.971646        -4.45858         0.182127          84.875
                               0               0                0               0         0.149856         84.7381        0.0310958        -160.884
                               0               0                0               0        0.0310979        -160.764         0.149767         84.7599
76.125                         0               0                0               0         0.179426         83.1985         0.971012        -6.24896
                               0               0                0               0         0.971302        -6.24242         0.179243         83.1889
                               0               0                0               0          0.15466         83.1568        0.0307124        -166.772
                               0               0                0               0        0.0306817        -166.652         0.154576         83.1768
76.17                          0               0                0               0         0.176491         81.5109          0.97074        -8.02536
                               0               0                0               0         0.970939        -8.03561         0.176318         81.5019
                               0               0                0               0         0.159371         81.5506        0.0304412         -172.73
                               0               0                0               0        0.0303758        -172.618         0.159291         81.5687
76.215                         0               0                0               0         0.173532         79.8252         0.970478        -9.80931
                               0               0                0               0         0.970579        -9.83441         0.173373         79.8162
                               0               0                0               0         0.163968          79.923        0.0302847        -178.712
                               0               0                0               0        0.0301859        -178.616         0.163892         79.9394
76.26                          0               0                0               0         0.170568         78.1438          0.97023        -11.5994
                               0               0                0               0         0.970244        -11.6352         0.170427         78.1339
                               0               0                0               0         0.168432         78.2774        0.0302417         175.328
                               0               0                0               0        0.0301137           175.4         0.168361         78.2923
76.305                         0               0                0               0         0.167619         76.4694         0.969994        -13.3942
                               0               0                0               0         0.969956        -13.4343         0.167498          76.458
                               0               0                0               0         0.172747         76.6173        0.0303077         169.432
                               0               0                0               0        0.0301571         169.478         0.172679         76.6309
76.35                          0               0                0               0         0.164702         74.8055         0.969767        -15.1918
                               0               0                0               0         0.969731        -15.2285         0.164605         74.7917
                               0               0                0               0         0.176893          74.946        0.0304753         163.641
                               0               0                0               0          0.03031         163.662         0.176828         74.9585
76.395                         0               0                0               0         0.161833         73.1559          0.96954        -16.9903
                               0               0                0               0         0.969574        -17.0149         0.161762         73.1393
                               0               0                0               0         0.180856         73.2663        0.0307345         157.987
                               0               0                0               0        0.0305631         157.989         0.180794         73.2781
76.44                          0               0                0               0         0.159027         71.5254           0.9693        -18.7869
                               0               0                0               0         0.969478         -18.791         0.158983         71.5059
                               0               0                0               0         0.184622         71.5814        0.0310735         152.499
                               0               0                0               0        0.0309041         152.488         0.184563         71.5926
76.485                         0               0                0               0         0.156294         69.9198         0.969029        -20.5785
                               0               0                0               0         0.969414         -20.555         0.156279         69.8972
                               0               0                0               0         0.188178         69.8937        0.0314797         147.193
                               0               0                0               0        0.0313193          147.18         0.188121         69.9047
76.53                          0               0                0               0         0.153644          68.345         0.968701        -22.3614
                               0               0                0               0         0.969333        -22.3057         0.153656         68.3197
                               0               0                0               0         0.191514         68.2059        0.0319398         142.084
                               0               0                0               0        0.0317939         142.075         0.191458         68.2168
76.575                         0               0                0               0         0.151081         66.8079          0.96828        -24.1316
                               0               0                0               0         0.969164        -24.0424         0.151118         66.7804
                               0               0                0               0         0.194619         66.5202        0.0324406         137.175
                               0               0                0               0        0.0323129         137.178         0.194565         66.5311
76.62                          0               0                0               0         0.148607         65.3153         0.967719        -25.8847
                               0               0                0               0         0.968822        -25.7649         0.148665         65.2864
                               0               0                0               0         0.197487         64.8384        0.0329697         132.469
                               0               0                0               0        0.0328616         132.486         0.197435         64.8495
76.665                         0               0                0               0         0.146221         63.8737         0.966959        -27.6167
                               0               0                0               0         0.968213        -27.4731         0.146295         63.8444
                               0               0                0               0         0.200112         63.1624         0.033515         127.962
                               0               0                0               0        0.0334261         127.993         0.200062         63.1735
76.71                          0               0                0               0         0.143922         62.4894         0.965931        -29.3243
                               0               0                0               0         0.967244         -29.167         0.144003         62.4607
                               0               0                0               0         0.202489         61.4936        0.0340658         123.647
                               0               0                0               0        0.0339934         123.688          0.20244         61.5046
76.755                         0               0                0               0         0.141705         61.1678          0.96456        -31.0052
                               0               0                0               0         0.965837        -30.8461         0.141785         61.1408
                               0               0                0               0         0.204615         59.8333        0.0346121         119.517
                               0               0                0               0        0.0345514         119.561         0.204568          59.844
76.8                           0               0                0               0         0.139567         59.9134         0.962777        -32.6584
                               0               0                0               0         0.963932        -32.5098         0.139638         59.8894
                               0               0                0               0         0.206487         58.1827        0.0351452         115.562
                               0               0                0               0        0.0350892         115.599         0.206441         58.1926
76.845                         0               0                0               0         0.137506         58.7299         0.960526        -34.2844
                               0               0                0               0         0.961498        -34.1571         0.137559         58.7102
                               0               0                0               0         0.208104         56.5426         0.035657         111.773
                               0               0                0               0         0.035597         111.793         0.208059         56.5514
76.89                          0               0                0               0          0.13552         57.6197         0.957774         -35.885
                               0               0                0               0         0.958533        -35.7868         0.135549          57.606
                               0               0                0               0         0.209465          54.914        0.0361408         108.141
                               0               0                0               0        0.0360661         108.134          0.20942         54.9213
76.935                         0               0                0               0         0.133612         56.5843         0.954517        -37.4624
                               0               0                0               0         0.955061        -37.3976         0.133612         56.5787
                               0               0                0               0         0.210569         53.2979        0.0365902         104.656
                               0               0                0               0        0.0364891         104.617         0.210522         53.3033
76.98                          0               0                0               0         0.131787         55.6244         0.950779        -39.0191
                               0               0                0               0         0.951126        -38.9883         0.131754         55.6289
                               0               0                0               0         0.211415         51.6955        0.0370001         101.312
                               0               0                0               0        0.0368602         101.238         0.211366         51.6986
77.025                         0               0                0               0          0.13005         54.7391         0.946608        -40.5574
                               0               0                0               0         0.946788        -40.5578         0.129986         54.7562
                               0               0                0               0         0.212004         50.1082        0.0373657         98.1021
                               0               0                0               0        0.0371758         97.9979          0.21195         50.1089
77.07                          0               0                0               0         0.128413         53.9268         0.942069        -42.0788
                               0               0                0               0         0.942116        -42.1053          0.12832         53.9586
                               0               0                0               0         0.212336         48.5382        0.0376832         95.0228
                               0               0                0               0        0.0374347         94.8989         0.212274         48.5364
77.115                         0               0                0               0         0.126887          53.184         0.937234         -43.584
                               0               0                0               0         0.937183        -43.6304         0.126771         53.2324
                               0               0                0               0         0.212412          46.988          0.03795         92.0718
                               0               0                0               0        0.0376388          91.945         0.212341         46.9841
77.16                          0               0                0               0         0.125485         52.5058          0.93218        -45.0735
                               0               0                0               0          0.93206        -45.1327         0.125356         52.5719
                               0               0                0               0         0.212234         45.4612        0.0381645         89.2493
                               0               0                0               0        0.0377928         89.1403         0.212153         45.4559
77.205                         0               0                0               0         0.124222         51.8855         0.926978        -46.5468