! TOUCHSTONE file generated by CST MICROWAVE STUDIO
! Date and time: Sun Jun 20 22:38:00 2021
! Project name: HIPS_d_sweep.cst
! Parameters = {fmax=120; fmin=75; b=0.46; d=24.05; a=0.63; phi=0; theta=0}
! Header version: 2018
! Port assignment regex: !\s*Touchstone port\s*([0-9]+)\s*=\s*(CST MWS port|CST DS port)\s*([0-9]+|Zmin|Zmax)\s*\(\"(.*)\"\)(\s*mode\s*([0-9]+))?.*
! Touchstone port assignment:
! Touchstone port 1 = CST MWS port Zmin ("") mode 1
! Touchstone port 2 = CST MWS port Zmin ("") mode 2
! Touchstone port 3 = CST MWS port Zmax ("") mode 1
! Touchstone port 4 = CST MWS port Zmax ("") mode 2
! S-Parameters are not renormalized. Unphysical impedance of 0 will be written to the file.
# GHz S MA R 0
75                             0               0                0               0         0.091422         -169.79         0.976913        -76.8812
                               0               0                0               0         0.976871        -76.8831        0.0913311        -169.865
                               0               0                0               0         0.191172         12.2938        0.0300706        -23.0623
                               0               0                0               0        0.0300903        -23.1306          0.19116          12.302
75.045                         0               0                0               0        0.0873446        -170.695         0.977651        -77.6617
                               0               0                0               0         0.977607         -77.664        0.0872635        -170.778
                               0               0                0               0         0.189669         11.5355        0.0296399         -22.204
                               0               0                0               0        0.0296553         -22.273         0.189657         11.5439
75.09                          0               0                0               0        0.0836206        -171.664         0.978264        -78.5231
                               0               0                0               0         0.978222        -78.5253        0.0835298        -171.748
                               0               0                0               0         0.187954         10.6965        0.0291973         -21.595
                               0               0                0               0        0.0292142        -21.6603         0.187942         10.7051
75.135                         0               0                0               0        0.0802882        -172.694         0.978806        -79.4649
                               0               0                0               0         0.978769        -79.4666        0.0801786        -172.774
                               0               0                0               0          0.18603         9.77641        0.0287469        -21.2299
                               0               0                0               0        0.0287681        -21.2896         0.186017         9.78547
75.18                          0               0                0               0         0.077373        -173.781         0.979323         -80.486
                               0               0                0               0          0.97929        -80.4872        0.0772434        -173.856
                               0               0                0               0         0.183894         8.77547        0.0282897        -21.1056
                               0               0                0               0         0.028316        -21.1599         0.183881         8.78493
75.225                         0               0                0               0        0.0748893         -174.92          0.97985        -81.5853
                               0               0                0               0         0.979821         -81.586        0.0747438        -174.992
                               0               0                0               0         0.181543         7.69412         0.027824        -21.2212
                               0               0                0               0        0.0278547        -21.2716          0.18153         7.70398
75.27                          0               0                0               0        0.0728414        -176.105         0.980414        -82.7614
                               0               0                0               0         0.980387        -82.7617        0.0726874        -176.177
                               0               0                0               0         0.178971         6.53315        0.0273459        -21.5783
                               0               0                0               0        0.0273791        -21.6266         0.178958         6.54339
75.315                         0               0                0               0        0.0712252        -177.333         0.981031        -84.0125
                               0               0                0               0         0.981005        -84.0128        0.0710713        -177.408
                               0               0                0               0         0.176171         5.29364        0.0268493        -22.1799
                               0               0                0               0        0.0268827         -22.228         0.176158         5.30424
75.36                          0               0                0               0        0.0700304        -178.599         0.981711         -85.337
                               0               0                0               0         0.981685        -85.3375        0.0698849        -178.681
                               0               0                0               0         0.173133           3.977        0.0263268        -23.0302
                               0               0                0               0        0.0263577        -23.0795          0.17312         3.98792
75.405                         0               0                0               0        0.0692417          -179.9         0.982454         -86.733
                               0               0                0               0         0.982426        -86.7341        0.0691119        -179.991
                               0               0                0               0         0.169847         2.58496        0.0257693        -24.1345
                               0               0                0               0        0.0257952        -24.1855         0.169834         2.59616
75.45                          0               0                0               0        0.0688406         178.764         0.983252        -88.1985
                               0               0                0               0         0.983223        -88.2004        0.0687319         178.663
                               0               0                0               0         0.166302         1.11961         0.025167        -25.4979
                               0               0                0               0        0.0251862        -25.5503         0.166289         1.13106
75.495                         0               0                0               0        0.0688068         177.394         0.984091        -89.7314
                               0               0                0               0         0.984063        -89.7345        0.0687228         177.282
                               0               0                0               0         0.162488       -0.416547        0.0245099         -27.126
                               0               0                0               0         0.024521        -27.1787         0.162475       -0.404863
75.54                          0               0                0               0        0.0691189         175.988         0.984952        -91.3297
                               0               0                0               0         0.984926         -91.334        0.0690611         175.867
                               0               0                0               0         0.158394        -2.02059        0.0237879        -29.0242
                               0               0                0               0        0.0237908         -29.076         0.158382        -2.00866
75.585                         0               0                0               0        0.0697559         174.543         0.985811        -92.9911
                               0               0                0               0         0.985792        -92.9964         0.069724         174.415
                               0               0                0               0         0.154012        -3.68914        0.0229921        -31.1985
                               0               0                0               0        0.0229876        -31.2482            0.154        -3.67693
75.63                          0               0                0               0        0.0706971         173.057         0.986643        -94.7129
                               0               0                0               0         0.986635        -94.7193        0.0706894         172.924
                               0               0                0               0         0.149336        -5.41836        0.0221152        -33.6568
                               0               0                0               0        0.0221048        -33.7039         0.149323        -5.40578
75.675                         0               0                0               0        0.0719235         171.527         0.987421        -96.4927
                               0               0                0               0         0.987431        -96.4997         0.071937         171.392
                               0               0                0               0          0.14436        -7.20394        0.0211521          -36.41
                               0               0                0               0        0.0211379        -36.4553         0.144346         -7.1909
75.72                          0               0                0               0        0.0734172         169.948         0.988121        -98.3274
                               0               0                0               0         0.988157        -98.3346        0.0734481         169.813
                               0               0                0               0         0.139083        -9.04122        0.0201005        -39.4758
                               0               0                0               0         0.020085        -39.5215         0.139068        -9.02753
75.765                         0               0                0               0        0.0751625         168.318         0.988724        -100.214
                               0               0                0               0         0.988796        -100.221        0.0752066         168.186
                               0               0                0               0         0.133506        -10.9252        0.0189611        -42.8822
                               0               0                0               0        0.0189468        -42.9319         0.133489        -10.9106
75.81                          0               0                0               0        0.0771456         166.633          0.98922        -102.148
                               0               0                0               0         0.989337        -102.155        0.0771987         166.506
                               0               0                0               0         0.127634        -12.8506        0.0177383        -46.6734
                               0               0                0               0        0.0177272        -46.7322         0.127615         -12.835
75.855                         0               0                0               0        0.0793549         164.893         0.989611        -104.127
                               0               0                0               0          0.98978        -104.132         0.079413         164.771
                               0               0                0               0         0.121475        -14.8123        0.0164401        -50.9186
                               0               0                0               0        0.0164337        -50.9922         0.121453        -14.7953
75.9                           0               0                0               0        0.0817808         163.094         0.989913        -106.146
                               0               0                0               0         0.990139         -106.15        0.0818406          162.98
                               0               0                0               0         0.115039        -16.8051        0.0150786        -55.7242
                               0               0                0               0        0.0150778        -55.8185         0.115016        -16.7864
75.945                         0               0                0               0         0.084416         161.239         0.990157        -108.201
                               0               0                0               0         0.990438        -108.204        0.0844751         161.131
                               0               0                0               0         0.108342        -18.8244        0.0136714        -61.2525
                               0               0                0               0        0.0136763        -61.3726         0.108317        -18.8037
75.99                          0               0                0               0        0.0872546         159.328         0.990392        -110.288
                               0               0                0               0         0.990719        -110.289        0.0873118         159.227
                               0               0                0               0           0.1014        -20.8659        0.0122433        -67.7503
                               0               0                0               0        0.0122535        -67.8993         0.101373         -20.843
76.035                         0               0                0               0        0.0902918         157.365         0.990675        -112.402
                               0               0                0               0         0.991031        -112.402        0.0903471         157.272
                               0               0                0               0        0.0942313        -22.9263         0.010831        -75.5888
                               0               0                0               0        0.0108457        -75.7669        0.0942028        -22.9009
76.08                          0               0                0               0        0.0935227         155.357         0.991069        -114.539
                               0               0                0               0         0.991427        -114.539         0.093577         155.272
                               0               0                0               0        0.0868553         -25.003       0.00949044         -85.307
                               0               0                0               0       0.00950843          -85.51        0.0868264         -24.975
76.125                         0               0                0               0        0.0969399         153.313         0.991629        -116.696
                               0               0                0               0         0.991957        -116.696        0.0969946         153.237
                               0               0                0               0        0.0792924        -27.0942       0.00830911        -97.6044
                               0               0                0               0       0.00832893        -97.8234         0.079264        -27.0638
76.17                          0               0                0               0         0.100531         151.242         0.992392        -118.869
                               0               0                0               0         0.992658         -118.87         0.100587         151.177
                               0               0                0               0        0.0715628        -29.1988       0.00741809        -113.099
                               0               0                0               0       0.00743812        -113.322        0.0715358         -29.166
76.215                         0               0                0               0         0.104275         149.157         0.993365        -121.055
                               0               0                0               0         0.993539        -121.057         0.104331         149.106
                               0               0                0               0        0.0636868        -31.3157        0.0069819        -131.572
                               0               0                0               0       0.00700072        -131.791        0.0636621        -31.2808
76.26                          0               0                0               0          0.10814          147.07         0.994513         -123.25
                               0               0                0               0         0.994581        -123.253         0.108191         147.033
                               0               0                0               0        0.0556844        -33.4424        0.0071289        -151.141
                               0               0                0               0       0.00714605        -151.364        0.0556627        -33.4055
76.305                         0               0                0               0         0.112077         144.987         0.995765        -125.452
                               0               0                0               0         0.995724        -125.456         0.112117         144.965
                               0               0                0               0        0.0475758        -35.5726       0.00785858        -169.123
                               0               0                0               0       0.00787517        -169.358        0.0475578        -35.5338
76.35                          0               0                0               0         0.116029         142.911         0.997013        -127.656
                               0               0                0               0         0.996877         -127.66         0.116048         142.903
                               0               0                0               0        0.0393819        -37.6908       0.00905101         175.944
                               0               0                0               0       0.00906902         175.698        0.0393678        -37.6495
76.395                         0               0                0               0         0.119928         140.837         0.998126        -129.859
                               0               0                0               0         0.997921        -129.864         0.119915         140.839
                               0               0                0               0        0.0311247        -39.7587        0.0105598         163.976
                               0               0                0               0         0.010581         163.731        0.0311145         -39.713
76.44                          0               0                0               0         0.123709         138.753         0.998965        -132.057
                               0               0                0               0         0.998723        -132.061         0.123657         138.757
                               0               0                0               0        0.0228283        -41.6741        0.0122688         154.284
                               0               0                0               0        0.0122941         154.055        0.0228218        -41.6186
76.485                         0               0                0               0         0.127315         136.641         0.999393        -134.246
                               0               0                0               0         0.999149         -134.25         0.127225         136.641
                               0               0                0               0        0.0145206        -43.0903        0.0140978         146.196
                               0               0                0               0        0.0141271         145.997        0.0145173         -43.009
76.53                          0               0                0               0         0.130708         134.483         0.999294        -136.422
                               0               0                0               0         0.999077        -136.426         0.130584         134.474
                               0               0                0               0       0.00624301        -41.8169        0.0159918          139.21
                               0               0                0               0         0.016024         139.052       0.00624318        -41.6279
76.575                         0               0                0               0         0.133865         132.266         0.998576        -138.583
                               0               0                0               0         0.998408        -138.587         0.133718         132.243
                               0               0                0               0       0.00217891         109.745        0.0179113         132.984
                               0               0                0               0        0.0179443         132.874       0.00218744         109.209
76.62                          0               0                0               0          0.13678         129.978         0.997178        -140.727
                               0               0                0               0         0.997072        -140.731          0.13662         129.941
                               0               0                0               0        0.0102654         122.405        0.0198264          127.29
                               0               0                0               0        0.0198575          127.23        0.0102683         122.265
76.665                         0               0                0               0         0.139456         127.617         0.995071         -142.85
                               0               0                0               0          0.99503        -142.854         0.139294         127.567
                               0               0                0               0        0.0183297         121.546        0.0217131         121.977
                               0               0                0               0        0.0217394         121.964        0.0183329         121.455
76.71                          0               0                0               0         0.141898         125.186         0.992252         -144.95
                               0               0                0               0         0.992271        -144.955         0.141743         125.124
                               0               0                0               0        0.0262597         119.576        0.0235518         116.943
                               0               0                0               0        0.0235707         116.973        0.0262641         119.503
76.755                         0               0                0               0         0.144115          122.69         0.988742        -147.027
                               0               0                0               0         0.988814        -147.032         0.143973         122.619
                               0               0                0               0        0.0340183         117.278        0.0253262         112.123
                               0               0                0               0         0.025336         112.187        0.0340245         117.214
76.8                           0               0                0               0         0.146112         120.138         0.984584        -149.078
                               0               0                0               0         0.984695        -149.084         0.145985         120.061
                               0               0                0               0        0.0415741          114.85        0.0270229         107.475
                               0               0                0               0        0.0270226         107.563        0.0415822         114.792
76.845                         0               0                0               0         0.147894         117.541         0.979831        -151.103
                               0               0                0               0         0.979968        -151.109         0.147784         117.461
                               0               0                0               0        0.0488998         112.372        0.0286309         102.974
                               0               0                0               0        0.0286208         103.076        0.0489095         112.319
76.89                          0               0                0               0         0.149464          114.91         0.974549        -153.099
                               0               0                0               0           0.9747        -153.105         0.149369          114.83
                               0               0                0               0        0.0559725         109.888        0.0301417         98.6052
                               0               0                0               0        0.0301232         98.7117        0.0559834          109.84
76.935                         0               0                0               0         0.150825         112.256         0.968808        -155.066
                               0               0                0               0         0.968961        -155.072         0.150744         112.177
                               0               0                0               0         0.062774         107.426        0.0315489         94.3616
                               0               0                0               0        0.0315243         94.4642        0.0627858         107.382
76.98                          0               0                0               0          0.15198          109.59         0.962681        -157.003
                               0               0                0               0         0.962827         -157.01          0.15191         109.513
                               0               0                0               0        0.0692919         105.004        0.0328487         90.2408
                               0               0                0               0        0.0328206         90.3328         0.069304         104.965
77.025                         0               0                0               0         0.152933          106.92          0.95624        -158.909
                               0               0                0               0         0.956375        -158.916         0.152872         106.847
                               0               0                0               0        0.0755188         102.636        0.0340391          86.243
                               0               0                0               0        0.0340102         86.3195        0.0755307         102.601
77.07                          0               0                0               0         0.153689         104.257         0.949558        -160.785
                               0               0                0               0         0.949677        -160.792         0.153636         104.189
                               0               0                0               0        0.0814525         100.332        0.0351203         82.3697
                               0               0                0               0        0.0350931         82.4275         0.081464         100.301
77.115                         0               0                0               0         0.154256         101.608         0.942703        -162.629
                               0               0                0               0         0.942804        -162.636         0.154209         101.545
                               0               0                0               0        0.0870954         98.0971        0.0360939         78.6223
                               0               0                0               0        0.0360703           78.66        0.0871062         98.0709
77.16                          0               0                0               0         0.154643         98.9805         0.935739        -164.443
                               0               0                0               0         0.935823        -164.449           0.1546         98.9221
                               0               0                0               0        0.0924538         95.9362        0.0369633         75.0021
                               0               0                0               0        0.0369446         75.0194        0.0924638         95.9136
77.205                         0               0                0               0         0.154859         96.3803         0.928727        -166.226