! TOUCHSTONE file generated by CST MICROWAVE STUDIO
! Date and time: Sun Jun 20 22:37:37 2021
! Project name: HIPS_d_sweep.cst
! Parameters = {fmax=120; fmin=75; b=0.46; d=22; a=0.63; phi=0; theta=0}
! Header version: 2018
! Port assignment regex: !\s*Touchstone port\s*([0-9]+)\s*=\s*(CST MWS port|CST DS port)\s*([0-9]+|Zmin|Zmax)\s*\(\"(.*)\"\)(\s*mode\s*([0-9]+))?.*
! Touchstone port assignment:
! Touchstone port 1 = CST MWS port Zmin ("") mode 1
! Touchstone port 2 = CST MWS port Zmin ("") mode 2
! Touchstone port 3 = CST MWS port Zmax ("") mode 1
! Touchstone port 4 = CST MWS port Zmax ("") mode 2
! S-Parameters are not renormalized. Unphysical impedance of 0 will be written to the file.
# GHz S MA R 0
75                             0               0                0               0        0.0409575        -107.864         0.976876         154.487
                               0               0                0               0          0.97631         154.486        0.0409549        -108.289
                               0               0                0               0         0.208788         64.6954         0.026184         84.0399
                               0               0                0               0        0.0262545         84.2618         0.208746         64.7217
75.045                         0               0                0               0        0.0429111          -103.5         0.977478         153.854
                               0               0                0               0         0.976964         153.858         0.043157        -107.335
                               0               0                0               0         0.209686         63.9061        0.0264886         84.3855
                               0               0                0               0         0.026302         84.9909         0.209678         63.9509
75.09                          0               0                0               0         0.047124        -101.055         0.977612         153.121
                               0               0                0               0         0.977113         153.128        0.0457797        -106.911
                               0               0                0               0         0.210549         63.0674        0.0268339         84.6311
                               0               0                0               0         0.026506         85.5879          0.21057         63.1276
75.135                         0               0                0               0        0.0520604         -101.63         0.977427         152.291
                               0               0                0               0         0.976917           152.3        0.0486756        -107.143
                               0               0                0               0         0.211381         62.1775         0.027224           84.75
                               0               0                0               0        0.0268502         85.9703         0.211428         62.2498
75.18                          0               0                0               0        0.0561468        -104.094          0.97704         151.371
                               0               0                0               0         0.976504         151.381        0.0516285        -108.027
                               0               0                0               0         0.212186         61.2352        0.0276617         84.7148
                               0               0                0               0         0.027311         86.0817         0.212257         61.3159
75.225                         0               0                0               0        0.0589552        -107.109         0.976541         150.367
                               0               0                0               0         0.975972         150.376        0.0544121        -109.446
                               0               0                0               0          0.21297         60.2397         0.028148         84.4993
                               0               0                0               0        0.0278625          85.893         0.213061         60.3247
75.27                          0               0                0               0        0.0607314        -110.014         0.975996         149.284
                               0               0                0               0         0.975396         149.291        0.0568483        -111.222
                               0               0                0               0         0.213737         59.1903        0.0286819         84.0796
                               0               0                0               0        0.0284801         85.3979         0.213845         59.2757
75.315                         0               0                0               0        0.0618121        -112.617         0.975452         148.128
                               0               0                0               0         0.974827         148.131        0.0588367        -113.177
                               0               0                0               0         0.214493          58.087          0.02926         83.4369
                               0               0                0               0         0.029142         84.6066         0.214613         58.1688
75.36                          0               0                0               0         0.062437        -114.913         0.974943         146.903
                               0               0                0               0           0.9743         146.903        0.0603494         -115.17
                               0               0                0               0         0.215243         56.9298        0.0298768          82.558
                               0               0                0               0        0.0298308          83.539         0.215369         57.0043
75.405                         0               0                0               0        0.0627473         -116.95         0.974485         145.615
                               0               0                0               0         0.973836         145.611        0.0614074        -117.109
                               0               0                0               0         0.215992         55.7188         0.030525         81.4375
                               0               0                0               0        0.0305332         82.2199         0.216116         55.7827
75.45                          0               0                0               0        0.0628187        -118.783         0.974089         144.268
                               0               0                0               0         0.973442         144.259        0.0620545        -118.946
                               0               0                0               0         0.216747         54.4535        0.0311959         80.0774
                               0               0                0               0        0.0312391         80.6754         0.216855         54.5048
75.495                         0               0                0               0        0.0626893        -120.458         0.973756         142.865
                               0               0                0               0         0.973122         142.852        0.0623395        -120.664
                               0               0                0               0         0.217511         53.1322        0.0318802         78.4871
                               0               0                0               0        0.0319417         78.9308         0.217588         53.1711
75.54                          0               0                0               0        0.0623758        -122.014         0.973485          141.41
                               0               0                0               0         0.972869         141.393        0.0623062        -122.268
                               0               0                0               0         0.218282          51.752        0.0325687         76.6822
                               0               0                0               0        0.0326358         77.0095         0.218315         51.7814
75.585                         0               0                0               0         0.061884        -123.481          0.97327         139.906
                               0               0                0               0         0.972677         139.886        0.0619908        -123.773
                               0               0                0               0         0.219046         50.3088        0.0332527          74.683
                               0               0                0               0        0.0333178         74.9327          0.21903         50.3341
75.63                          0               0                0               0        0.0612148        -124.884         0.973104         138.355
                               0               0                0               0         0.972537         138.332        0.0614217          -125.2
                               0               0                0               0         0.219772         48.7992        0.0339247         72.5129
                               0               0                0               0        0.0339846         72.7195          0.21972          48.826
75.675                         0               0                0               0         0.060367        -126.244         0.972982          136.76
                               0               0                0               0         0.972441         136.734        0.0606214        -126.571
                               0               0                0               0         0.220417         47.2243        0.0345784         70.1962
                               0               0                0               0        0.0346334         70.3866         0.220351         47.2547
75.72                          0               0                0               0        0.0593402        -127.576           0.9729         135.123
                               0               0                0               0         0.972383         135.095        0.0596082        -127.906
                               0               0                0               0         0.220939         45.5901        0.0352085         67.7568
                               0               0                0               0        0.0352612         67.9492         0.220876         45.6219
75.765                         0               0                0               0        0.0581357        -128.896         0.972855         133.447
                               0               0                0               0         0.972361         133.417         0.058398        -129.223
                               0               0                0               0         0.221308         43.9058         0.035811         65.2171
                               0               0                0               0        0.0358649         65.4206         0.221251         43.9358
75.81                          0               0                0               0        0.0567576        -130.213         0.972849         131.733
                               0               0                0               0         0.972376         131.701        0.0570052        -130.538
                               0               0                0               0         0.221511         42.1804        0.0363824         62.5968
                               0               0                0               0        0.0364405          62.813         0.221454         42.2077
75.855                         0               0                0               0        0.0552127        -131.537         0.972884         129.983
                               0               0                0               0         0.972433          129.95        0.0554437        -131.862
                               0               0                0               0         0.221546         40.4201        0.0369195          59.913
                               0               0                0               0        0.0369837         60.1376         0.221484         40.4461
75.9                           0               0                0               0        0.0535107        -132.871         0.972967         128.201
                               0               0                0               0          0.97254         128.166        0.0537275          -133.2
                               0               0                0               0         0.221408         38.6287        0.0374192         57.1797
                               0               0                0               0        0.0374897         57.4046         0.221342          38.655
75.945                         0               0                0               0         0.051664        -134.219         0.973104         126.389
                               0               0                0               0         0.972708         126.352        0.0518706        -134.555
                               0               0                0               0         0.221088         36.8086        0.0378781         54.4085
                               0               0                0               0        0.0379531         54.6238         0.221023         36.8362
75.99                          0               0                0               0        0.0496874        -135.578         0.973301         124.549
                               0               0                0               0         0.972947         124.511        0.0498874        -135.923
                               0               0                0               0         0.220577         34.9618        0.0382922         51.6086
                               0               0                0               0        0.0383682         51.8045         0.220516         34.9907
76.035                         0               0                0               0        0.0475972        -136.941         0.973563         122.685
                               0               0                0               0         0.973262         122.647        0.0477928        -137.297
                               0               0                0               0         0.219859         33.0902        0.0386571         48.7873
                               0               0                0               0        0.0387291         48.9557         0.219804         33.1201
76.08                          0               0                0               0        0.0454111          -138.3         0.973888         120.801
                               0               0                0               0         0.973654         120.763        0.0456019        -138.662
                               0               0                0               0          0.21892         31.1964        0.0389676          45.951
                               0               0                0               0        0.0390299         46.0862         0.218871         31.2267
76.125                         0               0                0               0        0.0431474        -139.639         0.974271         118.901
                               0               0                0               0         0.974117         118.863        0.0433308        -139.999
                               0               0                0               0         0.217744         29.2832        0.0392182          43.105
                               0               0                0               0         0.039265          43.205           0.2177         29.3135
76.17                          0               0                0               0         0.040825        -140.937         0.974699         116.988
                               0               0                0               0         0.974634         116.952        0.0409961        -141.282
                               0               0                0               0         0.216318         27.3541        0.0394032         40.2549
                               0               0                0               0        0.0394291         40.3209         0.216276         27.3839
76.215                         0               0                0               0        0.0384625        -142.168         0.975149         115.066
                               0               0                0               0         0.975179         115.034        0.0386153        -142.477
                               0               0                0               0         0.214631         25.4128        0.0395166         37.4062
                               0               0                0               0        0.0395177         37.4428         0.214586         25.4421
76.26                          0               0                0               0        0.0360787        -143.298         0.975595          113.14
                               0               0                0               0         0.975719         113.113         0.036207        -143.543
                               0               0                0               0         0.212672         23.4635        0.0395526         34.5651
                               0               0                0               0        0.0395271         34.5799         0.212623         23.4924
76.305                         0               0                0               0        0.0336923        -144.287         0.976002         111.212
                               0               0                0               0         0.976213         111.192        0.0337911         -144.43
                               0               0                0               0         0.210436         21.5109        0.0395063         31.7388
                               0               0                0               0        0.0394545         31.7412         0.210378         21.5396
76.35                          0               0                0               0         0.031322        -145.084         0.976331         109.286
                               0               0                0               0         0.976619         109.274        0.0313893        -145.076
                               0               0                0               0         0.207919         19.5598        0.0393734         28.9354
                               0               0                0               0        0.0392982          28.936          0.20785         19.5888
76.395                         0               0                0               0        0.0289872        -145.626         0.976542         107.365
                               0               0                0               0         0.976892         107.361        0.0290254        -145.409
                               0               0                0               0         0.205122         17.6152         0.039151          26.164
                               0               0                0               0        0.0390581         26.1733          0.20504         17.6452
76.44                          0               0                0               0        0.0267083        -145.837         0.976597          105.45
                               0               0                0               0         0.976992         105.455        0.0267257         -145.34
                               0               0                0               0         0.202048         15.6826        0.0388377         23.4349
                               0               0                0               0        0.0387347         23.4623         0.201951         15.7142
76.485                         0               0                0               0        0.0245077        -145.626         0.976456         103.543
                               0               0                0               0          0.97688         103.557        0.0245198        -144.765
                               0               0                0               0         0.198704         13.7671        0.0384338         20.7593
                               0               0                0               0        0.0383304         20.8118         0.198592         13.8012
76.53                          0               0                0               0        0.0224107        -144.881         0.976087         101.646
                               0               0                0               0         0.976525         101.669        0.0224416        -143.569
                               0               0                0               0           0.1951         11.8744        0.0379416         18.1487
                               0               0                0               0        0.0378482         18.2306         0.194973         11.9117
76.575                         0               0                0               0        0.0204471        -143.475         0.975462         99.7596
                               0               0                0               0         0.975902         99.7907          0.02053        -141.628
                               0               0                0               0          0.19125         10.0098        0.0373652         15.6154
                               0               0                0               0        0.0372924         15.7272         0.191109         10.0511
76.62                          0               0                0               0        0.0186523        -141.267         0.974559         97.8849
                               0               0                0               0          0.97499         97.9235        0.0188289        -138.825
                               0               0                0               0          0.18717         8.17858        0.0367105         13.1712
                               0               0                0               0        0.0366683         13.3096         0.187015         8.22471
76.665                         0               0                0               0        0.0170686        -138.127          0.97336         96.0225
                               0               0                0               0         0.973779         96.0676        0.0173867        -135.089
                               0               0                0               0         0.182877         6.38601         0.035985         10.8281
                               0               0                0               0        0.0359819         10.9858         0.182712         6.43768
76.71                          0               0                0               0        0.0157447        -133.967         0.971857          94.173
                               0               0                0               0          0.97226         94.2235        0.0162524        -130.433
                               0               0                0               0          0.17839         4.63712        0.0351975         8.59707
                               0               0                0               0        0.0352397         8.76305         0.178217         4.69494
76.755                         0               0                0               0        0.0147318        -128.808         0.970045          92.337
                               0               0                0               0         0.970433         92.3917        0.0154682        -125.013
                               0               0                0               0         0.173732         2.93674        0.0343577         6.48833
                               0               0                0               0        0.0344488         6.64857         0.173554         3.00121
76.8                           0               0                0               0        0.0140753        -122.843         0.967925         90.5149
                               0               0                0               0         0.968301         90.5727        0.0150593        -119.147
                               0               0                0               0         0.168924         1.28951        0.0334761         4.51093
                               0               0                0               0        0.0336164          4.6491         0.168744         1.36096
76.845                         0               0                0               0        0.0138024        -116.463         0.965502         88.7072
                               0               0                0               0          0.96587         88.7671        0.0150245        -113.262
                               0               0                0               0         0.163987       -0.300199        0.0325632         2.67258
                               0               0                0               0        0.0327502         2.77112          0.16381       -0.221573
76.89                          0               0                0               0        0.0139111        -110.178         0.962787         86.9146
                               0               0                0               0         0.963153         86.9753        0.0153345        -107.784
                               0               0                0               0         0.158945        -1.82819        0.0316294        0.979589
                               0               0                0               0        0.0318577         1.02082         0.158772        -1.74237
76.935                         0               0                0               0        0.0143685        -104.468         0.959793         85.1376
                               0               0                0               0         0.960162         85.1981        0.0159383        -103.027
                               0               0                0               0         0.153819        -3.29048        0.0306847       -0.563227
                               0               0                0               0        0.0309464       -0.595912         0.153654        -3.19763
76.98                          0               0                0               0        0.0151197        -99.6548         0.956537         83.3766
                               0               0                0               0         0.956915          83.436        0.0167758        -99.1477
                               0               0                0               0         0.148629        -4.68324        0.0297385        -1.95252
                               0               0                0               0        0.0300238        -2.07345         0.148474         -4.5837
77.025                         0               0                0               0        0.0161014        -95.8654         0.953038         81.6324
                               0               0                0               0          0.95343         81.6898         0.017788        -96.1628
                               0               0                0               0         0.143397        -6.00277        0.0287994         -3.1864
                               0               0                0               0         0.029097        -3.40649         0.143254        -5.89706
77.07                          0               0                0               0        0.0172536         -93.076         0.949318         79.9054
                               0               0                0               0         0.949727         79.9599        0.0189241        -94.0053
                               0               0                0               0         0.138139        -7.24539         0.027875        -4.26438
                               0               0                0               0        0.0281732        -4.59015         0.138011         -7.1342
77.115                         0               0                0               0        0.0185253        -91.1822           0.9454         78.1962
                               0               0                0               0          0.94583         78.2471        0.0201428        -92.5695
                               0               0                0               0         0.132875        -8.40741        0.0269721        -5.18732
                               0               0                0               0        0.0272593        -5.62008         0.132762        -8.29159
77.16                          0               0                0               0        0.0198756        -90.0511          0.94131         76.5052
                               0               0                0               0         0.941761         76.5519        0.0214125         -91.743
                               0               0                0               0         0.127619        -9.48504        0.0260964        -5.95733
                               0               0                0               0        0.0263616        -6.49266         0.127523        -9.36558
77.205                         0               0                0               0        0.0212728        -89.5524         0.937074         74.8329