! TOUCHSTONE file generated by CST MICROWAVE STUDIO
! Date and time: Sun Jun 20 22:37:00 2021
! Project name: HIPS_d_sweep.cst
! Parameters = {fmax=120; fmin=75; b=0.46; d=17.85; a=0.63; phi=0; theta=0}
! Header version: 2018
! Port assignment regex: !\s*Touchstone port\s*([0-9]+)\s*=\s*(CST MWS port|CST DS port)\s*([0-9]+|Zmin|Zmax)\s*\(\"(.*)\"\)(\s*mode\s*([0-9]+))?.*
! Touchstone port assignment:
! Touchstone port 1 = CST MWS port Zmin ("") mode 1
! Touchstone port 2 = CST MWS port Zmin ("") mode 2
! Touchstone port 3 = CST MWS port Zmax ("") mode 1
! Touchstone port 4 = CST MWS port Zmax ("") mode 2
! S-Parameters are not renormalized. Unphysical impedance of 0 will be written to the file.
# GHz S MA R 0
75                             0               0                0               0         0.327829        -1.48427          0.92893        -93.8593
                               0               0                0               0         0.929024        -93.8576         0.327763        -1.47996
                               0               0                0               0         0.143856         7.81585        0.0945099         28.2353
                               0               0                0               0        0.0944906         28.2383         0.143861         7.80792
75.045                         0               0                0               0         0.330981        -2.11707         0.927989        -94.4656
                               0               0                0               0         0.928084        -94.4638         0.330907        -2.11291
                               0               0                0               0         0.142259         7.53999        0.0948804         27.4243
                               0               0                0               0        0.0948607         27.4267         0.142266            7.53
75.09                          0               0                0               0         0.333838        -2.81211         0.927185        -95.1327
                               0               0                0               0         0.927281        -95.1307          0.33376        -2.80828
                               0               0                0               0         0.140566          7.2092        0.0952234          26.502
                               0               0                0               0        0.0952037          26.504         0.140573         7.19931
75.135                         0               0                0               0         0.336407        -3.56799         0.926509        -95.8594
                               0               0                0               0         0.926606        -95.8572         0.336328        -3.56461
                               0               0                0               0          0.13877           6.826         0.095532         25.4691
                               0               0                0               0        0.0955126          25.471         0.138777         6.81745
75.18                          0               0                0               0         0.338695         -4.3834         0.925952        -96.6445
                               0               0                0               0          0.92605        -96.6421         0.338617        -4.38053
                               0               0                0               0         0.136868         6.39297        0.0958003         24.3272
                               0               0                0               0        0.0957816         24.3288         0.136874         6.38628
75.225                         0               0                0               0          0.34071        -5.25708         0.925508        -97.4869
                               0               0                0               0         0.925606        -97.4842         0.340632        -5.25477
                               0               0                0               0         0.134854         5.91277        0.0960238          23.078
                               0               0                0               0         0.096006         23.0795          0.13486          5.9079
75.27                          0               0                0               0         0.342456        -6.18782         0.925172        -98.3854
                               0               0                0               0         0.925269        -98.3824         0.342378        -6.18609
                               0               0                0               0         0.132724         5.38813        0.0961988         21.7239
                               0               0                0               0         0.096182         21.7251          0.13273         5.38467
75.315                         0               0                0               0         0.343941        -7.17444         0.924939        -99.3388
                               0               0                0               0         0.925034        -99.3354         0.343861        -7.17335
                               0               0                0               0         0.130472         4.82191        0.0963226         20.2674
                               0               0                0               0        0.0963071         20.2682         0.130479         4.81924
75.36                          0               0                0               0         0.345169        -8.21579         0.924806        -100.346
                               0               0                0               0         0.924898        -100.342         0.345087        -8.21537
                               0               0                0               0         0.128096         4.21714        0.0963934         18.7112
                               0               0                0               0        0.0963792         18.7115         0.128103         4.21457
75.405                         0               0                0               0         0.346146        -9.31073         0.924771        -101.405
                               0               0                0               0          0.92486        -101.401         0.346061        -9.31102
                               0               0                0               0         0.125591         3.57706        0.0964099         17.0583
                               0               0                0               0        0.0963971         17.0581         0.125599         3.57393
75.45                          0               0                0               0         0.346878        -10.4581         0.924833        -102.514
                               0               0                0               0         0.924917         -102.51          0.34679        -10.4591
                               0               0                0               0         0.122954         2.90517        0.0963715         15.3116
                               0               0                0               0          0.09636         15.3109         0.122962         2.90095
75.495                         0               0                0               0         0.347373        -11.6566         0.924991        -103.673
                               0               0                0               0         0.925071        -103.668         0.347282        -11.6585
                               0               0                0               0         0.120182          2.2053        0.0962777         13.4744
                               0               0                0               0        0.0962677         13.4732          0.12019         2.19964
75.54                          0               0                0               0         0.347636        -12.9051         0.925246        -104.878
                               0               0                0               0          0.92532        -104.873         0.347543        -12.9077
                               0               0                0               0         0.117273          1.4817        0.0961286         11.5498
                               0               0                0               0          0.09612         11.5482          0.11728         1.47447
75.585                         0               0                0               0         0.347676        -14.2021         0.925597        -106.129
                               0               0                0               0         0.925666        -106.124         0.347582        -14.2054
                               0               0                0               0         0.114225        0.739104         0.095924         9.54105
                               0               0                0               0        0.0959169          9.5392         0.114232        0.730425
75.63                          0               0                0               0         0.347502         -15.546         0.926046        -107.423
                               0               0                0               0         0.926108        -107.418         0.347408        -15.5501
                               0               0                0               0         0.111037       -0.017146         0.095664         7.45165
                               0               0                0               0        0.0956586         7.44973         0.111043      -0.0269156
75.675                         0               0                0               0         0.347123        -16.9353         0.926591        -108.759
                               0               0                0               0         0.926648        -108.753          0.34703        -16.9401
                               0               0                0               0         0.107708        -0.78095        0.0953488         5.28503
                               0               0                0               0        0.0953451          5.2833         0.107713       -0.791245
75.72                          0               0                0               0          0.34655        -18.3679         0.927233        -110.133
                               0               0                0               0         0.927283        -110.128         0.346459        -18.3733
                               0               0                0               0         0.104239        -1.54529        0.0949781         3.04476
                               0               0                0               0        0.0949764         3.04352         0.104244        -1.55538
75.765                         0               0                0               0         0.345792        -19.8418         0.927969        -111.544
                               0               0                0               0         0.928013        -111.538         0.345705        -19.8478
                               0               0                0               0         0.100631        -2.30202        0.0945519        0.734544
                               0               0                0               0        0.0945523        0.734115         0.100637        -2.31107
75.81                          0               0                0               0         0.344862        -21.3546         0.928797        -112.988
                               0               0                0               0         0.928835        -112.982         0.344778        -21.3611
                               0               0                0               0        0.0968866        -3.04157        0.0940699        -1.64184
                               0               0                0               0        0.0940726         -1.6411        0.0968938         -3.0487
75.855                         0               0                0               0         0.343771        -22.9038         0.929711        -114.463
                               0               0                0               0         0.929743        -114.458         0.343692        -22.9107
                               0               0                0               0        0.0930089        -3.75262        0.0935316        -4.08048
                               0               0                0               0        0.0935368         -4.0782        0.0930187        -3.75701
75.9                           0               0                0               0         0.342531        -24.4865         0.930705        -115.967
                               0               0                0               0         0.930732        -115.961         0.342455        -24.4937
                               0               0                0               0        0.0890029        -4.42164        0.0929366        -6.57734
                               0               0                0               0        0.0929446        -6.57316        0.0890164        -4.42257
75.945                         0               0                0               0         0.341154        -26.0996          0.93177        -117.496
                               0               0                0               0         0.931793        -117.491          0.34108        -26.1072
                               0               0                0               0         0.084875        -5.03228        0.0922844         -9.1283
                               0               0                0               0        0.0922953        -9.12186        0.0848932        -5.02925
75.99                          0               0                0               0          0.33965        -27.7396         0.932895        -119.048
                               0               0                0               0         0.932914        -119.042         0.339579        -27.7476
                               0               0                0               0        0.0806334        -5.56459        0.0915743        -11.7291
                               0               0                0               0        0.0915883        -11.7201        0.0806571        -5.55736
76.035                         0               0                0               0         0.338031        -29.4031         0.934066        -120.619
                               0               0                0               0         0.934081        -120.613          0.33796        -29.4116
                               0               0                0               0        0.0762881        -5.99399         0.090806        -14.3754
                               0               0                0               0        0.0908232        -14.3635        0.0763181        -5.98266
76.08                          0               0                0               0         0.336307        -31.0863         0.935266        -122.206
                               0               0                0               0         0.935279        -122.201         0.336235        -31.0953
                               0               0                0               0         0.071852        -6.28975         0.089979        -17.0627
                               0               0                0               0        0.0899995        -17.0477        0.0718884        -6.27484
76.125                         0               0                0               0         0.334488        -32.7852         0.936478        -123.808
                               0               0                0               0          0.93649        -123.802         0.334412        -32.7949
                               0               0                0               0        0.0673409        -6.41313        0.0890932        -19.7866
                               0               0                0               0         0.089117        -19.7684        0.0673832        -6.39557
76.17                          0               0                0               0         0.332582        -34.4958         0.937682         -125.42
                               0               0                0               0         0.937692        -125.415         0.332501        -34.5065
                               0               0                0               0        0.0627743        -6.31455        0.0881488        -22.5425
                               0               0                0               0        0.0881756        -22.5209        0.0628215        -6.29573
76.215                         0               0                0               0         0.330596         -36.214         0.938854         -127.04
                               0               0                0               0         0.938864        -127.035         0.330508        -36.2257
                               0               0                0               0        0.0581767        -5.92994         0.087146        -25.3259
                               0               0                0               0        0.0871758        -25.3008        0.0582272        -5.91167
76.26                          0               0                0               0         0.328537        -37.9358         0.939971        -128.666
                               0               0                0               0         0.939981        -128.661         0.328441        -37.9487
                               0               0                0               0        0.0535792        -5.17551        0.0860857        -28.1321
                               0               0                0               0        0.0861181        -28.1037        0.0536309        -5.15996
76.305                         0               0                0               0         0.326411        -39.6569         0.941009        -130.296
                               0               0                0               0         0.941019        -130.291         0.326306        -39.6712
                               0               0                0               0        0.0490221        -3.94087         0.084969        -30.9566
                               0               0                0               0        0.0850036         -30.925        0.0490719         -3.9304
76.35                          0               0                0               0         0.324222        -41.3734         0.941942        -131.926
                               0               0                0               0         0.941953        -131.921         0.324107        -41.3893
                               0               0                0               0        0.0445579        -2.08021        0.0837975         -33.795
                               0               0                0               0        0.0838337        -33.7603        0.0446027        -2.07707
76.395                         0               0                0               0         0.321975        -43.0816         0.942744        -133.554
                               0               0                0               0         0.942757         -133.55          0.32185         -43.099
                               0               0                0               0        0.0402575        0.597185        0.0825733        -36.6429
                               0               0                0               0        0.0826105        -36.6054        0.0402937        0.591451
76.44                          0               0                0               0         0.319673        -44.7776         0.943391         -135.18
                               0               0                0               0         0.943406        -135.176         0.319539        -44.7966
                               0               0                0               0        0.0362172         4.33272        0.0812988        -39.4961
                               0               0                0               0        0.0813363        -39.4561        0.0362412         4.31827
76.485                         0               0                0               0         0.317319         -46.458         0.943859        -136.801
                               0               0                0               0         0.943877        -136.797         0.317176        -46.4784
                               0               0                0               0        0.0325682         9.40744         0.079977        -42.3505
                               0               0                0               0        0.0800139        -42.3084        0.0325772         9.38777
76.53                          0               0                0               0         0.314916        -48.1195         0.944126        -138.415
                               0               0                0               0         0.944146        -138.411         0.314767        -48.1412
                               0               0                0               0        0.0294846         16.0855        0.0786111        -45.2022
                               0               0                0               0        0.0786467        -45.1586        0.0294772         16.0694
76.575                         0               0                0               0         0.312468        -49.7591         0.944171        -140.021
                               0               0                0               0         0.944193        -140.018         0.312315        -49.7818
                               0               0                0               0        0.0271797         24.4718         0.077205        -48.0477
                               0               0                0               0        0.0772381        -48.0029        0.0271571          24.474
76.62                          0               0                0               0         0.309978         -51.374         0.943976        -141.618
                               0               0                0               0            0.944        -141.616         0.309822        -51.3973
                               0               0                0               0        0.0258716         34.2878        0.0757625        -50.8836
                               0               0                0               0        0.0757924        -50.8381        0.0258383         34.3251
76.665                         0               0                0               0          0.30745        -52.9616         0.943524        -143.205
                               0               0                0               0         0.943551        -143.203         0.307294        -52.9853
                               0               0                0               0          0.02571         44.7376         0.074288        -53.7068
                               0               0                0               0        0.0743136         -53.661        0.0256737         44.8194
76.71                          0               0                0               0         0.304886        -54.5198         0.942804        -144.781
                               0               0                0               0         0.942833        -144.779         0.304735        -54.5433
                               0               0                0               0        0.0267015         54.7336         0.072786        -56.5146
                               0               0                0               0        0.0728064         -56.469        0.0266706         54.8541
76.755                         0               0                0               0         0.302294        -56.0465         0.941805        -146.344
                               0               0                0               0         0.941836        -146.343         0.302149        -56.0694
                               0               0                0               0        0.0287036         63.3998        0.0712611        -59.3044
                               0               0                0               0        0.0712754        -59.2595        0.0286841         63.5418
76.8                           0               0                0               0         0.299677        -57.5399         0.940521        -147.894
                               0               0                0               0         0.940554        -147.894         0.299543        -57.5618
                               0               0                0               0        0.0314941         70.3692        0.0697181        -62.0741
                               0               0                0               0        0.0697255        -62.0304        0.0314881         70.5139
76.845                         0               0                0               0         0.297042        -58.9985         0.938948         -149.43
                               0               0                0               0         0.938982        -149.431         0.296921        -59.0189
                               0               0                0               0        0.0348497         75.6961        0.0681618        -64.8219
                               0               0                0               0        0.0681615        -64.7797        0.0348563         75.8294
76.89                          0               0                0               0         0.294396        -60.4211         0.937086        -150.952
                               0               0                0               0         0.937121        -150.954         0.294292        -60.4397
                               0               0                0               0        0.0385863         79.6299        0.0665968        -67.5463
                               0               0                0               0        0.0665883        -67.5061         0.038602          79.743
76.935                         0               0                0               0         0.291747        -61.8066         0.934937        -152.459
                               0               0                0               0         0.934972        -152.461         0.291663        -61.8231
                               0               0                0               0        0.0425655         82.4542        0.0650279        -70.2462
                               0               0                0               0        0.0650106        -70.2081        0.0425853         82.5429
76.98                          0               0                0               0         0.289104        -63.1543         0.932507         -153.95
                               0               0                0               0         0.932542        -153.953         0.289042        -63.1684
                               0               0                0               0        0.0466869         84.4188        0.0634597        -72.9207
                               0               0                0               0        0.0634333         -72.885         0.046705         84.4815
77.025                         0               0                0               0         0.286475        -64.4635         0.929805        -155.425
                               0               0                0               0         0.929839        -155.429         0.286437        -64.4752
                               0               0                0               0        0.0508782         85.7228        0.0618965        -75.5692
                               0               0                0               0        0.0618608        -75.5361        0.0508884         85.7599
77.07                          0               0                0               0         0.283871         -65.734         0.926843        -156.883
                               0               0                0               0         0.926875        -156.888         0.283859        -65.7434
                               0               0                0               0        0.0550872         86.5189        0.0603426        -78.1916
                               0               0                0               0        0.0602976        -78.1612        0.0550831         86.5316
77.115                         0               0                0               0         0.281301        -66.9658         0.923633        -158.324
                               0               0                0               0         0.923663         -158.33         0.281316         -66.973
                               0               0                0               0        0.0592751         86.9225         0.058802        -80.7879
                               0               0                0               0        0.0587479        -80.7601        0.0592508         86.9129
77.16                          0               0                0               0         0.278778        -68.1592         0.920194        -159.747
                               0               0                0               0          0.92022        -159.754          0.27882        -68.1644
                               0               0                0               0        0.0634133          87.021        0.0572785        -83.3583
                               0               0                0               0        0.0572157        -83.3332        0.0633636         86.9918
77.205                         0               0                0               0         0.276312        -69.3146         0.916544        -161.152