! TOUCHSTONE file generated by CST MICROWAVE STUDIO
! Date and time: Sun Jun 20 22:37:49 2021
! Project name: HIPS_d_sweep.cst
! Parameters = {fmax=120; fmin=75; b=0.46; d=23.1; a=0.63; phi=0; theta=0}
! Header version: 2018
! Port assignment regex: !\s*Touchstone port\s*([0-9]+)\s*=\s*(CST MWS port|CST DS port)\s*([0-9]+|Zmin|Zmax)\s*\(\"(.*)\"\)(\s*mode\s*([0-9]+))?.*
! Touchstone port assignment:
! Touchstone port 1 = CST MWS port Zmin ("") mode 1
! Touchstone port 2 = CST MWS port Zmin ("") mode 2
! Touchstone port 3 = CST MWS port Zmax ("") mode 1
! Touchstone port 4 = CST MWS port Zmax ("") mode 2
! S-Parameters are not renormalized. Unphysical impedance of 0 will be written to the file.
# GHz S MA R 0
75                             0               0                0               0        0.0323351        -60.4106         0.998119         29.8476
                               0               0                0               0         0.998058         29.8482        0.0323122        -60.3081
                               0               0                0               0        0.0549843         119.818       0.00424937         98.2517
                               0               0                0               0       0.00425468         96.9076        0.0549851          119.78
75.045                         0               0                0               0        0.0288399        -64.0358         0.998577         29.0897
                               0               0                0               0         0.998493         29.0708        0.0296124        -64.2766
                               0               0                0               0        0.0570465         116.611       0.00375285         99.0771
                               0               0                0               0       0.00379399         98.1082        0.0552152         117.658
75.09                          0               0                0               0        0.0254745        -67.2968         0.998785         28.2481
                               0               0                0               0         0.998702         28.2175        0.0267413        -68.0333
                               0               0                0               0        0.0584567         114.851       0.00339953          99.829
                               0               0                0               0       0.00346007         99.1267        0.0570162         117.037
75.135                         0               0                0               0        0.0223239        -70.1038         0.998793         27.3238
                               0               0                0               0         0.998721         27.2879        0.0238065        -71.4143
                               0               0                0               0        0.0604152         114.402       0.00319005         100.555
                               0               0                0               0       0.00325733         99.9787         0.059974         116.574
75.18                          0               0                0               0        0.0194622        -72.3726         0.998642         26.3185
                               0               0                0               0         0.998583          26.282        0.0209322        -74.2401
                               0               0                0               0        0.0634379         114.341       0.00312366         101.256
                               0               0                0               0       0.00318823         100.667        0.0636259         115.926
75.225                         0               0                0               0        0.0169494        -74.0359         0.998368         25.2339
                               0               0                0               0         0.998319         25.2004        0.0182454        -76.3338
                               0               0                0               0        0.0673057         114.067       0.00319857         101.871
                               0               0                0               0       0.00325363         101.172        0.0677088         115.065
75.27                          0               0                0               0        0.0148302        -75.0659         0.998002         24.0722
                               0               0                0               0         0.997957         24.0441        0.0158623        -77.5544
                               0               0                0               0         0.071688         113.448       0.00341213         102.301
                               0               0                0               0       0.00345308         101.459        0.0720847         114.025
75.315                         0               0                0               0        0.0131329        -75.5076         0.997568         22.8358
                               0               0                0               0          0.99752         22.8143        0.0138764        -77.8538
                               0               0                0               0        0.0763712         112.534       0.00376087         102.456
                               0               0                0               0       0.00378505         101.491        0.0766794         112.846
75.36                          0               0                0               0        0.0118696        -75.5145         0.997085         21.5274
                               0               0                0               0         0.997028         21.5129        0.0123504        -77.3546
                               0               0                0               0        0.0812448         111.401       0.00424062         102.278
                               0               0                0               0       0.00424705         101.242        0.0814499         111.555
75.405                         0               0                0               0        0.0110366         -75.358         0.996566         20.1497
                               0               0                0               0         0.996497         20.1418        0.0113109        -76.4055
                               0               0                0               0        0.0862541         110.109       0.00484653         101.756
                               0               0                0               0       0.00483566         100.704        0.0863694         110.174
75.45                          0               0                0               0        0.0106166        -75.3773         0.996022         18.7056
                               0               0                0               0         0.995937         18.7035        0.0107493        -75.5352
                               0               0                0               0         0.091372         108.699       0.00557309         100.904
                               0               0                0               0       0.00554654         99.8835        0.0914189         108.716
75.495                         0               0                0               0        0.0105836        -75.8715         0.995456         17.1984
                               0               0                0               0         0.995358         17.2008        0.0106314        -75.2702
                               0               0                0               0        0.0965831         107.198       0.00641406          99.751
                               0               0                0               0       0.00637435         98.7954        0.0965837         107.192
75.54                          0               0                0               0        0.0109091        -76.9966          0.99487         15.6311
                               0               0                0               0         0.994762         15.6366        0.0109132         -75.922
                               0               0                0               0         0.101877         105.623       0.00736242         98.3299
                               0               0                0               0       0.00731266         97.4581         0.101851         105.608
75.585                         0               0                0               0        0.0115666        -78.7345         0.994262         14.0071
                               0               0                0               0         0.994152         14.0141        0.0115545        -77.5042
                               0               0                0               0         0.107246         103.985       0.00841023         96.6718
                               0               0                0               0       0.00835385         95.8918         0.107208          103.97
75.63                          0               0                0               0        0.0125331        -80.9419         0.993629         12.3298
                               0               0                0               0         0.993525         12.3368        0.0125236        -79.8076
                               0               0                0               0         0.112681         102.291       0.00954859         94.8054
                               0               0                0               0       0.00948907         94.1171         0.112643          102.28
75.675                         0               0                0               0        0.0137868        -83.4302         0.992966         10.6026
                               0               0                0               0         0.992877         10.6082        0.0137944        -82.5405
                               0               0                0               0         0.118171         100.547        0.0107677         92.7563
                               0               0                0               0        0.0107083         92.1543         0.118141         100.542
75.72                          0               0                0               0        0.0153059        -86.0292         0.992267         8.82907
                               0               0                0               0         0.992204         8.83218        0.0153416        -85.4383
                               0               0                0               0         0.123705         98.7566        0.0120568         90.5478
                               0               0                0               0        0.0120002         90.0238         0.123689         98.7573
75.765                         0               0                0               0        0.0170669        -88.6161         0.991525         7.01261
                               0               0                0               0         0.991499         7.01248        0.0171381        -88.3138
                               0               0                0               0          0.12927         96.9232        0.0134044         88.2012
                               0               0                0               0        0.0133528         87.7457          0.12927         96.9297
75.81                          0               0                0               0        0.0190446        -91.1179         0.990736         5.15683
                               0               0                0               0         0.990756         5.15306        0.0191542          -91.06
                               0               0                0               0         0.134852         95.0497        0.0147986         85.7366
                               0               0                0               0        0.0147532         85.3399         0.134868         95.0611
75.855                         0               0                0               0        0.0212126        -93.5017         0.989895         3.26529
                               0               0                0               0          0.98997         3.25788        0.0213591         -93.632
                               0               0                0               0         0.140432         93.1389         0.016227         83.1724
                               0               0                0               0        0.0161883         82.8258         0.140464          93.154
75.9                           0               0                0               0        0.0235443        -95.7612         0.988999         1.34157
                               0               0                0               0         0.989135         1.33091         0.023722        -96.0253
                               0               0                0               0         0.145994         91.1935        0.0176774         80.5262
                               0               0                0               0        0.0176449         80.2221         0.146038         91.2114
75.945                         0               0                0               0        0.0260133        -97.9063         0.988048       -0.610766
                               0               0                0               0          0.98825       -0.623882        0.0262136        -98.2574
                               0               0                0               0         0.151517         89.2167        0.0191378         77.8139
                               0               0                0               0        0.0191104         77.5465         0.151568         89.2364
75.99                          0               0                0               0        0.0285943        -99.9546         0.987047        -2.58812
                               0               0                0               0         0.987315         -2.6026        0.0288068        -100.356
                               0               0                0               0         0.156978         87.2118        0.0205971         75.0504
                               0               0                0               0         0.020573         74.8154         0.157034         87.2323
76.035                         0               0                0               0        0.0312636        -101.927         0.985999        -4.58692
                               0               0                0               0         0.986331        -4.60142        0.0314774        -102.351
                               0               0                0               0         0.162355         85.1824        0.0220447         72.2491
                               0               0                0               0        0.0220218         72.0434         0.162411         85.2031
76.08                          0               0                0               0         0.033999        -103.845         0.984915        -6.60357
                               0               0                0               0         0.985307         -6.6166        0.0342041        -104.272
                               0               0                0               0         0.167624         83.1325        0.0234712         69.4215
                               0               0                0               0        0.0234474         69.2434         0.167676         83.1528
76.125                         0               0                0               0        0.0367806        -105.728         0.983808        -8.63444
                               0               0                0               0         0.984249        -8.64453        0.0369684        -106.146
                               0               0                0               0          0.17276         81.0663        0.0248682         66.5778
                               0               0                0               0        0.0248416         66.4262         0.172804         81.0858
76.17                          0               0                0               0        0.0395902        -107.594         0.982693        -10.6759
                               0               0                0               0         0.983172        -10.6817        0.0397548        -107.995
                               0               0                0               0         0.177739          78.988        0.0262286         63.7263
                               0               0                0               0        0.0261976         63.6004         0.177773         79.0066
76.215                         0               0                0               0        0.0424118        -109.457         0.981588        -12.7243
                               0               0                0               0          0.98209        -12.7248        0.0425497        -109.837
                               0               0                0               0         0.182535         76.9021         0.027546         60.8738
                               0               0                0               0        0.0275096         60.7729         0.182557         76.9198
76.26                          0               0                0               0         0.045231         -111.33         0.980511        -14.7759
                               0               0                0               0          0.98102        -14.7706        0.0453418        -111.687
                               0               0                0               0         0.187124         74.8133         0.028815         58.0255
                               0               0                0               0        0.0287729         57.9486         0.187134         74.8302
76.305                         0               0                0               0        0.0480351        -113.224         0.979479        -16.8271
                               0               0                0               0         0.979979         -16.816        0.0481212        -113.557
                               0               0                0               0         0.191484         72.7258        0.0300307         55.1853
                               0               0                0               0        0.0299832         55.1309         0.191483         72.7423
76.35                          0               0                0               0        0.0508129        -115.145         0.978507        -18.8739
                               0               0                0               0         0.978982        -18.8579        0.0508794        -115.456
                               0               0                0               0         0.195592         70.6439        0.0311884          52.356
                               0               0                0               0        0.0311368         52.3221         0.195583         70.6605
76.395                         0               0                0               0        0.0535542        -117.101         0.977603        -20.9129
                               0               0                0               0         0.978041        -20.8936        0.0536086        -117.389
                               0               0                0               0         0.199431         68.5716        0.0322835         49.5397
                               0               0                0               0        0.0322296         49.5236         0.199417         68.5885
76.44                          0               0                0               0        0.0562499        -119.094         0.976765        -22.9405
                               0               0                0               0         0.977158        -22.9203        0.0563014        -119.361
                               0               0                0               0         0.202984         66.5122        0.0333111         46.7377
                               0               0                0               0        0.0332572         46.7361         0.202968           66.53
76.485                         0               0                0               0        0.0588917        -121.128         0.975976        -24.9536
                               0               0                0               0         0.976325        -24.9352        0.0589508        -121.373
                               0               0                0               0         0.206237         64.4688        0.0342654         43.9511
                               0               0                0               0        0.0342143         43.9606         0.206225         64.4877
76.53                          0               0                0               0        0.0614714        -123.201         0.975207        -26.9496
                               0               0                0               0         0.975515        -26.9359        0.0615492        -123.424
                               0               0                0               0         0.209181         62.4435        0.0351401         41.1806
                               0               0                0               0        0.0350945         41.1978         0.209176         62.4636
76.575                         0               0                0               0        0.0639812        -125.314         0.974405        -28.9266
                               0               0                0               0         0.974684          -28.92         0.064088        -125.511
                               0               0                0               0         0.211809         60.4379        0.0359276         38.4274
                               0               0                0               0        0.0358902         38.4491         0.211815          60.459
76.62                          0               0                0               0        0.0664126        -127.464         0.973501        -30.8834
                               0               0                0               0         0.973764        -30.8858        0.0665569         -127.63
                               0               0                0               0         0.214116         58.4524        0.0366194         35.6921
                               0               0                0               0        0.0365924         35.7159         0.214135         58.4742
76.665                         0               0                0               0        0.0687559        -129.645          0.97241        -32.8201
                               0               0                0               0         0.972668        -32.8318         0.068942        -129.774
                               0               0                0               0         0.216101         56.4869         0.037206         32.9759
                               0               0                0               0        0.0371911         33.0003         0.216134         56.5086
76.71                          0               0                0               0        0.0709988        -131.851         0.971033        -34.7372
                               0               0                0               0          0.97129        -34.7569         0.071224        -131.935
                               0               0                0               0         0.217762           54.54        0.0376779         30.2798
                               0               0                0               0        0.0376754          30.304         0.217806         54.5612
76.755                         0               0                0               0        0.0731243        -134.075         0.969265        -36.6357
                               0               0                0               0         0.969522        -36.6609        0.0733754        -134.109
                               0               0                0               0         0.219096           52.61        0.0380256         27.6049
                               0               0                0               0        0.0380348          27.629         0.219148           52.63
76.8                           0               0                0               0        0.0751079        -136.312         0.967009        -38.5168
                               0               0                0               0         0.967257        -38.5437        0.0753588        -136.293
                               0               0                0               0         0.220099         50.6949        0.0382413         24.9522
                               0               0                0               0        0.0382603         24.9768         0.220151         50.7135
76.845                         0               0                0               0        0.0769146         -138.56          0.96418        -40.3809
                               0               0                0               0         0.964412        -40.4054        0.0771301        -138.502
                               0               0                0               0         0.220758         48.7933        0.0383191         22.3233
                               0               0                0               0        0.0383452         22.3487         0.220803          48.811
76.89                          0               0                0               0        0.0785015        -140.832         0.960726        -42.2275
                               0               0                0               0         0.960934        -42.2461        0.0786529        -140.764
                               0               0                0               0          0.22106         46.9056        0.0382566         19.7207
                               0               0                0               0        0.0382869          19.747         0.221092         46.9237
76.935                         0               0                0               0        0.0798345        -143.163         0.956629         -44.055
                               0               0                0               0         0.956813        -44.0652        0.0799252        -143.127
                               0               0                0               0         0.220988         45.0358        0.0380553         17.1482
                               0               0                0               0        0.0380871         17.1747         0.221003         45.0558
76.98                          0               0                0               0         0.080925        -145.606         0.951914        -45.8608
                               0               0                0               0         0.952079         -45.862        0.0809984        -145.626
                               0               0                0               0         0.220531         43.1915        0.0377207         14.6115
                               0               0                0               0        0.0377525         14.6372         0.220531         43.2151
77.025                         0               0                0               0        0.0818533        -148.198         0.946647        -47.6421
                               0               0                0               0         0.946802        -47.6354        0.0819591        -148.262
                               0               0                0               0         0.219696         41.3839        0.0372621         12.1183
                               0               0                0               0        0.0372933          12.142         0.219687         41.4118
77.07                          0               0                0               0        0.0827295        -150.918         0.940928        -49.3962
                               0               0                0               0         0.941081        -49.3841        0.0828803        -150.997
                               0               0                0               0         0.218511         39.6252        0.0366917         9.67856
                               0               0                0               0        0.0367233         9.69917           0.2185         39.6568
77.115                         0               0                0               0        0.0836177        -153.703         0.934878        -51.1212
                               0               0                0               0          0.93503        -51.1069        0.0837904        -153.776
                               0               0                0               0         0.217028         37.9254        0.0360242         7.30361
                               0               0                0               0        0.0360577         7.32041         0.217016         37.9589
77.16                          0               0                0               0         0.084514        -156.489         0.928625        -52.8164
                               0               0                0               0         0.928771        -52.8031        0.0846799        -156.556
                               0               0                0               0         0.215308         36.2892        0.0352751         5.00556
                               0               0                0               0        0.0353127         5.01815         0.215294          36.323
77.205                         0               0                0               0        0.0853809         -159.24         0.922289         -54.482