! TOUCHSTONE file generated by CST MICROWAVE STUDIO
! Date and time: Sun Jun 20 22:36:54 2021
! Project name: HIPS_d_sweep.cst
! Parameters = {fmax=120; fmin=75; b=0.46; d=17.05; a=0.63; phi=0; theta=0}
! Header version: 2018
! Port assignment regex: !\s*Touchstone port\s*([0-9]+)\s*=\s*(CST MWS port|CST DS port)\s*([0-9]+|Zmin|Zmax)\s*\(\"(.*)\"\)(\s*mode\s*([0-9]+))?.*
! Touchstone port assignment:
! Touchstone port 1 = CST MWS port Zmin ("") mode 1
! Touchstone port 2 = CST MWS port Zmin ("") mode 2
! Touchstone port 3 = CST MWS port Zmax ("") mode 1
! Touchstone port 4 = CST MWS port Zmax ("") mode 2
! S-Parameters are not renormalized. Unphysical impedance of 0 will be written to the file.
# GHz S MA R 0
75                             0               0                0               0         0.373584          85.302         0.915634        -3.71172
                               0               0                0               0         0.915557         -3.7162         0.373557         85.2921
                               0               0                0               0         0.131849         79.2908        0.0658506        -148.406
                               0               0                0               0        0.0657599        -148.307         0.131718         79.2928
75.045                         0               0                0               0         0.376087         84.5438         0.916155          -4.372
                               0               0                0               0         0.916072        -4.37411         0.376044         84.5425
                               0               0                0               0         0.132772         78.8963        0.0663976        -149.881
                               0               0                0               0        0.0661688        -149.757         0.132637         78.8982
75.09                          0               0                0               0          0.37838         83.7841         0.916359        -5.06024
                               0               0                0               0          0.91627         -5.0607         0.378321         83.7886
                               0               0                0               0         0.133748         78.4479        0.0668544        -151.424
                               0               0                0               0        0.0665182        -151.293         0.133611         78.4497
75.135                         0               0                0               0         0.380429         83.0193          0.91625         -5.7807
                               0               0                0               0         0.916156        -5.78017         0.380355         83.0271
                               0               0                0               0          0.13479         77.9456        0.0672205        -153.046
                               0               0                0               0        0.0668093        -152.921         0.134651          77.947
75.18                          0               0                0               0         0.382203         82.2453         0.915843        -6.53769
                               0               0                0               0         0.915747        -6.53673         0.382117         82.2542
                               0               0                0               0          0.13591         77.3903        0.0674981        -154.761
                               0               0                0               0        0.0670444         -154.65          0.13577         77.3914
75.225                         0               0                0               0         0.383673         81.4568         0.915165        -7.33535
                               0               0                0               0         0.915071        -7.33444          0.38358         81.4651
                               0               0                0               0         0.137119         76.7838        0.0676923        -156.579
                               0               0                0               0        0.0672273        -156.486         0.136979         76.7847
75.27                          0               0                0               0          0.38482         80.6485         0.914255        -8.17751
                               0               0                0               0         0.914168        -8.17699         0.384724         80.6547
                               0               0                0               0         0.138426         76.1291        0.0678113        -158.511
                               0               0                0               0        0.0673631        -158.436         0.138286         76.1299
75.315                         0               0                0               0          0.38563         79.8141         0.913161        -9.06745
                               0               0                0               0         0.913087        -9.06756         0.385536         79.8173
                               0               0                0               0         0.139838         75.4295        0.0678655        -160.567
                               0               0                0               0        0.0674581        -160.506           0.1397         75.4303
75.36                          0               0                0               0         0.386099         78.9475         0.911942        -10.0078
                               0               0                0               0         0.911885        -10.0086         0.386012         78.9474
                               0               0                0               0         0.141362         74.6888        0.0678678        -162.753
                               0               0                0               0          0.06752        -162.701         0.141226         74.6899
75.405                         0               0                0               0         0.386234          78.043         0.910661        -11.0001
                               0               0                0               0         0.910624        -11.0017         0.386157         78.0394
                               0               0                0               0            0.143         73.9111        0.0678327        -165.075
                               0               0                0               0        0.0675573        -165.023         0.142865         73.9125
75.45                          0               0                0               0         0.386048         77.0954         0.909383        -12.0453
                               0               0                0               0         0.909369        -12.0476         0.385984         77.0885
                               0               0                0               0          0.14475         73.1001        0.0677758        -167.535
                               0               0                0               0        0.0675792        -167.474         0.144617         73.1022
75.495                         0               0                0               0         0.385567         76.1003         0.908172         -13.143
                               0               0                0               0         0.908183        -13.1459         0.385515         76.0908
                               0               0                0               0         0.146611         72.2595        0.0677129        -170.133
                               0               0                0               0        0.0675956        -170.056          0.14648         72.2622
75.54                          0               0                0               0         0.384818         75.0547         0.907087        -14.2921
                               0               0                0               0         0.907122        -14.2954         0.384777         75.0433
                               0               0                0               0         0.148577         71.3922        0.0676594        -172.865
                               0               0                0               0        0.0676163        -172.765         0.148448         71.3956
75.585                         0               0                0               0         0.383835         73.9571         0.906177        -15.4904
                               0               0                0               0         0.906237         -15.494         0.383804         73.9444
                               0               0                0               0          0.15064         70.5005        0.0676298        -175.726
                               0               0                0               0        0.0676513        -175.598         0.150512         70.5047
75.63                          0               0                0               0         0.382655          72.807         0.905484        -16.7352
                               0               0                0               0         0.905566        -16.7389         0.382627         72.7938
                               0               0                0               0         0.152791         69.5863        0.0676367        -178.707
                               0               0                0               0        0.0677099        -178.551         0.152664         69.5913
75.675                         0               0                0               0          0.38131         71.6057         0.905034         -18.023
                               0               0                0               0         0.905136        -18.0267         0.381282         71.5927
                               0               0                0               0         0.155019         68.6507        0.0676911         178.202
                               0               0                0               0        0.0678005         178.386         0.154893         68.6564
75.72                          0               0                0               0         0.379833         70.3557         0.904843        -19.3502
                               0               0                0               0         0.904962        -19.3538           0.3798         70.3432
                               0               0                0               0         0.157311         67.6941        0.0678011         175.014
                               0               0                0               0        0.0679305          175.22         0.157185         67.7006
75.765                         0               0                0               0          0.37825         69.0603         0.904914        -20.7129
                               0               0                0               0         0.905046        -20.7163         0.378208         69.0488
                               0               0                0               0         0.159654         66.7166        0.0679725         171.741
                               0               0                0               0         0.068106         171.962         0.159529         66.7237
75.81                          0               0                0               0         0.376586         67.7239         0.905237        -22.1069
                               0               0                0               0         0.905379        -22.1102         0.376531         67.7137
                               0               0                0               0         0.162035          65.718        0.0682087         168.398
                               0               0                0               0        0.0683314         168.625         0.161909         65.7257
75.855                         0               0                0               0         0.374858         66.3513         0.905793        -23.5286
                               0               0                0               0         0.905941        -23.5318         0.374787         66.3425
                               0               0                0               0         0.164437         64.6976        0.0685103         164.999
                               0               0                0               0        0.0686095         165.221         0.164312         64.7057
75.9                           0               0                0               0         0.373078         64.9477         0.906555        -24.9742
                               0               0                0               0         0.906706        -24.9773          0.37299         64.9404
                               0               0                0               0         0.166846         63.6548        0.0688757         161.557
                               0               0                0               0        0.0689412         161.763         0.166721         63.6633
75.945                         0               0                0               0         0.371255         63.5186         0.907487        -26.4403
                               0               0                0               0          0.90764        -26.4433         0.371151         63.5128
                               0               0                0               0         0.169247         62.5889        0.0693013         158.085
                               0               0                0               0        0.0693257         158.266         0.169122         62.5976
75.99                          0               0                0               0         0.369395         62.0692         0.908551        -27.9237
                               0               0                0               0         0.908702        -27.9267         0.369275          62.065
                               0               0                0               0         0.171623         61.4992        0.0697819         154.597
                               0               0                0               0        0.0697608         154.743         0.171498         61.5082
76.035                         0               0                0               0         0.367499         60.6048         0.909704        -29.4216
                               0               0                0               0         0.909852        -29.4246         0.367366         60.6022
                               0               0                0               0         0.173959         60.3853        0.0703106         151.102
                               0               0                0               0        0.0702425         151.207         0.173833         60.3944
76.08                          0               0                0               0         0.365569         59.1305         0.910902        -30.9314
                               0               0                0               0         0.911044        -30.9345         0.365426         59.1294
                               0               0                0               0         0.176238          59.247        0.0708796         147.611
                               0               0                0               0        0.0707656          147.67         0.176112         59.2562
76.125                         0               0                0               0         0.363604          57.651         0.912101        -32.4507
                               0               0                0               0         0.912237        -32.4538         0.363453         57.6513
                               0               0                0               0         0.178444         58.0844        0.0714802         144.132
                               0               0                0               0        0.0713241         144.145         0.178319         58.0937
76.17                          0               0                0               0         0.361603         56.1706         0.913257        -33.9774
                               0               0                0               0         0.913386        -33.9806         0.361449         56.1724
                               0               0                0               0         0.180561         56.8979        0.0721035         140.674
                               0               0                0               0        0.0719109         140.641         0.180437         56.9073
76.215                         0               0                0               0         0.359564         54.6936          0.91433        -35.5094
                               0               0                0               0         0.914451        -35.5126         0.359411         54.6967
                               0               0                0               0         0.182574         55.6884        0.0727403         137.242
                               0               0                0               0        0.0725187         137.169          0.18245         55.6979
76.26                          0               0                0               0         0.357489         53.2235         0.915281        -37.0448
                               0               0                0               0         0.915394        -37.0481          0.35734         53.2278
                               0               0                0               0         0.184468         54.4571        0.0733811         133.843
                               0               0                0               0        0.0731398         133.737         0.184344         54.4666
76.305                         0               0                0               0         0.355376         51.7638         0.916076         -38.582
                               0               0                0               0         0.916179        -38.5853         0.355236         51.7692
                               0               0                0               0         0.186228         53.2056        0.0740173         130.481
                               0               0                0               0        0.0737665         130.352         0.186105         53.2151
76.35                          0               0                0               0         0.353229         50.3175         0.916682        -40.1192
                               0               0                0               0         0.916776        -40.1225           0.3531         50.3237
                               0               0                0               0         0.187841         51.9359        0.0746401          127.16
                               0               0                0               0        0.0743915          127.02         0.187719         51.9454
76.395                         0               0                0               0         0.351049         48.8873         0.917073        -41.6548
                               0               0                0               0         0.917158        -41.6581         0.350935         48.8941
                               0               0                0               0         0.189295         50.6503        0.0752418         123.884
                               0               0                0               0        0.0750075         123.747         0.189175         50.6597
76.44                          0               0                0               0         0.348841         47.4754         0.917227        -43.1873
                               0               0                0               0         0.917302        -43.1903         0.348743         47.4826
                               0               0                0               0         0.190579         49.3514        0.0758152         120.655
                               0               0                0               0        0.0756082         120.537          0.19046         49.3609
76.485                         0               0                0               0          0.34661         46.0839         0.917126         -44.715
                               0               0                0               0         0.917192        -44.7178         0.346531         46.0912
                               0               0                0               0         0.191684         48.0423        0.0763537         117.478
                               0               0                0               0        0.0761876         117.393         0.191567         48.0518
76.53                          0               0                0               0         0.344361         44.7144         0.916756        -46.2365
                               0               0                0               0         0.916814        -46.2389         0.344301         44.7215
                               0               0                0               0         0.192603         46.7261        0.0768521         114.354
                               0               0                0               0        0.0767403         114.318         0.192488         46.7356
76.575                         0               0                0               0         0.342102         43.3683          0.91611        -47.7502
                               0               0                0               0          0.91616        -47.7523         0.342063         43.3749
                               0               0                0               0          0.19333         45.4061        0.0773057         111.286
                               0               0                0               0        0.0772619         111.314         0.193218         45.4156
76.62                          0               0                0               0         0.339841         42.0466         0.915184        -49.2549
                               0               0                0               0         0.915225        -49.2564         0.339821         42.0523
                               0               0                0               0         0.193863         44.0859        0.0777111         108.275
                               0               0                0               0        0.0777484         108.383         0.193754         44.0954
76.665                         0               0                0               0         0.337585         40.7501         0.913977         -50.749
                               0               0                0               0         0.914012          -50.75         0.337584         40.7547
                               0               0                0               0         0.194201         42.7688        0.0780659         105.324
                               0               0                0               0        0.0781964         105.525         0.194094         42.7783
76.71                          0               0                0               0         0.335344         39.4792         0.912495        -52.2314
                               0               0                0               0         0.912523        -52.2317          0.33536         39.4824
                               0               0                0               0         0.194344         41.4584        0.0783686         102.434
                               0               0                0               0        0.0786031         102.741         0.194241         41.4679
76.755                         0               0                0               0         0.333125         38.2341         0.910746        -53.7007
                               0               0                0               0         0.910769        -53.7003         0.333156         38.2356
                               0               0                0               0         0.194296         40.1581         0.078619         99.6071
                               0               0                0               0        0.0789661          100.03         0.194196         40.1675
76.8                           0               0                0               0         0.330939         37.0148         0.908742        -55.1559
                               0               0                0               0          0.90876        -55.1547         0.330982         37.0145
                               0               0                0               0         0.194062          38.871        0.0788177         96.8448
                               0               0                0               0        0.0792835         97.3929         0.193965         38.8804
76.845                         0               0                0               0         0.328792         35.8209         0.906498         -56.596
                               0               0                0               0         0.906513         -56.594         0.328845         35.8186
                               0               0                0               0         0.193648         37.6003        0.0789663          94.148
                               0               0                0               0        0.0795534         94.8273         0.193554         37.6095
76.89                          0               0                0               0         0.326694          34.652         0.904032        -58.0201
                               0               0                0               0         0.904044        -58.0172         0.326754         34.6476
                               0               0                0               0         0.193063         36.3487        0.0790674         91.5178
                               0               0                0               0        0.0797741         92.3322         0.192972         36.3578
76.935                         0               0                0               0         0.324652         33.5071         0.901363        -59.4273
                               0               0                0               0         0.901373        -59.4236         0.324715         33.5007
                               0               0                0               0         0.192317         35.1188        0.0791242         88.9545
                               0               0                0               0        0.0799443         89.9053         0.192229         35.1277
76.98                          0               0                0               0         0.322674         32.3856         0.898512        -60.8172
                               0               0                0               0         0.898523        -60.8126         0.322737         32.3772
                               0               0                0               0         0.191418         33.9126        0.0791406         86.4583
                               0               0                0               0        0.0800625         87.5439         0.191334         33.9214
77.025                         0               0                0               0         0.320765         31.2861         0.895504        -62.1892
                               0               0                0               0         0.895517        -62.1837         0.320826          31.276
                               0               0                0               0          0.19038         32.7322        0.0791213         84.0292
                               0               0                0               0        0.0801275         85.2443         0.190299         32.7408
77.07                          0               0                0               0         0.318932         30.2076         0.892362         -63.543
                               0               0                0               0         0.892377        -63.5366         0.318988          30.196
                               0               0                0               0         0.189214          31.579         0.079071         81.6664
                               0               0                0               0        0.0801386         83.0019         0.189135         31.5874
77.115                         0               0                0               0         0.317181         29.1486          0.88911        -64.8784
                               0               0                0               0         0.889128        -64.8711         0.317228         29.1357
                               0               0                0               0         0.187931         30.4542        0.0789949         79.3688
                               0               0                0               0        0.0800959         80.8112         0.187855         30.4625
77.16                          0               0                0               0         0.315515         28.1077         0.885773        -66.1953
                               0               0                0               0         0.885795        -66.1873         0.315551          28.094
                               0               0                0               0         0.186543         29.3587        0.0788981         77.1348
                               0               0                0               0        0.0800005         78.6658          0.18647         29.3668
77.205                         0               0                0               0         0.313939         27.0834         0.882374        -67.4939