! TOUCHSTONE file generated by CST MICROWAVE STUDIO
! Date and time: Sun Jun 20 22:37:32 2021
! Project name: HIPS_d_sweep.cst
! Parameters = {fmax=120; fmin=75; b=0.46; d=21.5; a=0.63; phi=0; theta=0}
! Header version: 2018
! Port assignment regex: !\s*Touchstone port\s*([0-9]+)\s*=\s*(CST MWS port|CST DS port)\s*([0-9]+|Zmin|Zmax)\s*\(\"(.*)\"\)(\s*mode\s*([0-9]+))?.*
! Touchstone port assignment:
! Touchstone port 1 = CST MWS port Zmin ("") mode 1
! Touchstone port 2 = CST MWS port Zmin ("") mode 2
! Touchstone port 3 = CST MWS port Zmax ("") mode 1
! Touchstone port 4 = CST MWS port Zmax ("") mode 2
! S-Parameters are not renormalized. Unphysical impedance of 0 will be written to the file.
# GHz S MA R 0
75                             0               0                0               0        0.0820792        -59.2661         0.995205         -148.51
                               0               0                0               0         0.995569        -148.501        0.0820588        -59.1536
                               0               0                0               0        0.0442149         119.008        0.0223368        -67.8344
                               0               0                0               0        0.0223745        -67.9269        0.0442784         119.157
75.045                         0               0                0               0        0.0843061        -59.8067         0.997193        -149.279
                               0               0                0               0         0.998433        -149.276         0.084183         -59.995
                               0               0                0               0        0.0468658         118.483         0.022377        -69.6151
                               0               0                0               0        0.0223919        -69.8659        0.0469288         118.629
75.09                          0               0                0               0        0.0865715        -60.4543         0.998451        -150.098
                               0               0                0               0                1        -150.092        0.0863415         -60.878
                               0               0                0               0        0.0496637          117.84        0.0223857        -71.4867
                               0               0                0               0        0.0223854        -71.8686         0.049726         117.982
75.135                         0               0                0               0        0.0888478        -61.2156         0.999028        -150.973
                               0               0                0               0                1        -150.959        0.0885152        -61.8052
                               0               0                0               0        0.0526167         117.089        0.0223575        -73.4602
                               0               0                0               0         0.022349        -73.9429        0.0526781         117.226
75.18                          0               0                0               0        0.0911008        -62.0958         0.998998        -151.908
                               0               0                0               0                1        -151.885        0.0906799         -62.779
                               0               0                0               0        0.0557329         116.241        0.0222865        -75.5488
                               0               0                0               0        0.0222762         -76.099        0.0557933         116.371
75.225                         0               0                0               0        0.0932896        -63.0978         0.998445        -152.909
                               0               0                0               0                1        -152.877        0.0928055        -63.8018
                               0               0                0               0        0.0590199         115.303        0.0221662        -77.7678
                               0               0                0               0        0.0221598        -78.3494        0.0590796         115.426
75.27                          0               0                0               0        0.0953667        -64.2221         0.997468        -153.977
                               0               0                0               0         0.999499         -153.94        0.0948556        -64.8759
                               0               0                0               0        0.0624851         114.285        0.0219901        -80.1348
                               0               0                0               0        0.0219921        -80.7101        0.0625442           114.4
75.315                         0               0                0               0        0.0972795        -65.4662         0.996169        -155.116
                               0               0                0               0         0.997844        -155.076        0.0967876        -66.0036
                               0               0                0               0        0.0661346         113.193        0.0217517        -82.6708
                               0               0                0               0        0.0217654        -83.2008        0.0661936         113.299
75.36                          0               0                0               0        0.0989716        -66.8239         0.994651        -156.325
                               0               0                0               0         0.995904        -156.288        0.0985531        -67.1867
                               0               0                0               0        0.0699736         112.034        0.0214446        -85.4002
                               0               0                0               0        0.0214717         -85.846         0.070033         112.133
75.405                         0               0                0               0         0.100386        -68.2858         0.993012        -157.604
                               0               0                0               0         0.993823        -157.574         0.100099        -68.4267
                               0               0                0               0        0.0740056         110.815        0.0210629        -88.3515
                               0               0                0               0        0.0211038        -88.6754        0.0740659         110.906
75.45                          0               0                0               0         0.101469        -69.8389         0.991343         -158.95
                               0               0                0               0         0.991728        -158.932         0.101368        -69.7246
                               0               0                0               0        0.0782323         109.541        0.0206018        -91.5588
                               0               0                0               0        0.0206554        -91.7256         0.078294         109.623
75.495                         0               0                0               0         0.102171        -71.4674         0.989721        -160.362
                               0               0                0               0         0.989725        -160.357         0.102304        -71.0806
                               0               0                0               0        0.0826531         108.215        0.0200581        -95.0623
                               0               0                0               0        0.0201219        -95.0409        0.0827167         108.291
75.54                          0               0                0               0         0.102454        -73.1531         0.988211        -161.836
                               0               0                0               0         0.987897        -161.845         0.102854        -72.4942
                               0               0                0               0        0.0872651         106.843        0.0194308          -98.91
                               0               0                0               0        0.0195009        -98.6753        0.0873312         106.912
75.585                         0               0                0               0         0.102294        -74.8768         0.986862        -163.368
                               0               0                0               0           0.9863         -163.39         0.102971        -73.9637
                               0               0                0               0        0.0920625         105.426        0.0187223         -103.16
                               0               0                0               0        0.0187939        -102.694        0.0921315         105.489
75.63                          0               0                0               0          0.10168        -76.6194         0.985707        -164.952
                               0               0                0               0         0.984971        -164.987          0.10262        -75.4863
                               0               0                0               0        0.0970367         103.966         0.017939         -107.88
                               0               0                0               0        0.0180067        -107.177        0.0971089         104.025
75.675                         0               0                0               0         0.100618        -78.3628         0.984764        -166.585
                               0               0                0               0         0.983924         -166.63         0.101782         -77.058
                               0               0                0               0         0.102176         102.467        0.0170928        -113.156
                               0               0                0               0        0.0171509        -112.218         0.102252         102.521
75.72                          0               0                0               0        0.0991279        -80.0915          0.98404        -168.262
                               0               0                0               0         0.983158        -168.314         0.100455        -78.6737
                               0               0                0               0         0.107466         100.928        0.0162022        -119.083
                               0               0                0               0        0.0162456         -117.93         0.107545         100.979
75.765                         0               0                0               0        0.0972447        -81.7933         0.983527        -169.978
                               0               0                0               0         0.982656        -170.034        0.0986572        -80.3268
                               0               0                0               0         0.112888         99.3516        0.0152942        -125.773
                               0               0                0               0        0.0153185        -124.442          0.11297         99.3995
75.81                          0               0                0               0        0.0950123        -83.4598         0.983209        -171.729
                               0               0                0               0          0.98239        -171.785         0.096425        -82.0098
                               0               0                0               0         0.118421         97.7372        0.0144048        -133.343
                               0               0                0               0        0.0144078        -131.887         0.118506         97.7831
75.855                         0               0                0               0         0.092482        -85.0862         0.983062         -173.51
                               0               0                0               0         0.982324        -173.563        0.0938114        -83.7146
                               0               0                0               0          0.12404          96.086          0.01358        -141.894
                               0               0                0               0        0.0135624        -140.387         0.124129         96.1305
75.9                           0               0                0               0        0.0897084        -86.6718         0.983054        -175.318
                               0               0                0               0         0.982418        -175.364        0.0908814        -85.4322
                               0               0                0               0         0.129719         94.3987        0.0128743        -151.472
                               0               0                0               0        0.0128409        -150.002          0.12981         94.4423
75.945                         0               0                0               0        0.0867469        -88.2188         0.983151        -177.148
                               0               0                0               0         0.982627        -177.185        0.0877072        -87.1535
                               0               0                0               0         0.135428         92.6763        0.0123463        -162.015
                               0               0                0               0        0.0123064        -160.669         0.135522         92.7195
75.99                          0               0                0               0        0.0836504        -89.7321         0.983313        -178.998
                               0               0                0               0         0.982905        -179.024        0.0843632        -88.8696
                               0               0                0               0         0.141135         90.9201        0.0120499        -173.293
                               0               0                0               0        0.0120164        -172.139          0.14123         90.9633
76.035                         0               0                0               0        0.0804682        -91.2179         0.983502         179.136
                               0               0                0               0         0.983203         179.122        0.0809209        -90.5717
                               0               0                0               0         0.146806         89.1319        0.0120219         175.094
                               0               0                0               0        0.0120089          176.03         0.146903         89.1753
76.08                          0               0                0               0        0.0772442        -92.6836         0.983676         177.256
                               0               0                0               0         0.983478         177.255        0.0774452        -92.2519
                               0               0                0               0         0.152406          87.314        0.0122722         163.643
                               0               0                0               0        0.0122913         164.379         0.152505         87.3578
76.125                         0               0                0               0        0.0740164        -94.1363         0.983798         175.365
                               0               0                0               0         0.983683         175.378        0.0739919        -93.9032
                               0               0                0               0         0.157901         85.4693         0.012782         152.805
                               0               0                0               0        0.0128385         153.384            0.158         85.5136
76.17                          0               0                0               0        0.0708162        -95.5824         0.983829         173.465
                               0               0                0               0         0.983779         173.491        0.0706062        -95.5196
                               0               0                0               0         0.163255         83.6013        0.0135107         142.875
                               0               0                0               0        0.0136032         143.349         0.163356         83.6462
76.215                         0               0                0               0         0.067669        -97.0269         0.983736         171.559
                               0               0                0               0         0.983727         171.595        0.0673224        -97.0963
                               0               0                0               0         0.168434         81.7141        0.0144086         133.974
                               0               0                0               0        0.0145292         134.381         0.168537         81.7595
76.26                          0               0                0               0        0.0645938        -98.4726         0.983488         169.647
                               0               0                0               0         0.983494         169.693        0.0641643        -98.6299
                               0               0                0               0         0.173407         79.8128         0.015427         126.083
                               0               0                0               0        0.0155634         126.449         0.173511         79.8585
76.305                         0               0                0               0        0.0616043        -99.9204         0.983059         167.733
                               0               0                0               0         0.983053         167.783         0.061146        -100.118
                               0               0                0               0         0.178145         77.9027        0.0165242         119.108
                               0               0                0               0        0.0166616         119.449         0.178251         77.9485
76.35                          0               0                0               0        0.0587091        -101.368         0.982431         165.816
                               0               0                0               0          0.98239         165.867        0.0582732        -101.561
                               0               0                0               0         0.182624         75.9903        0.0176675         112.923
                               0               0                0               0        0.0177909         113.255         0.182732         76.0358
76.395                         0               0                0               0        0.0559124         -102.81         0.981591         163.897
                               0               0                0               0         0.981502         163.944        0.0555443        -102.957
                               0               0                0               0         0.186825         74.0824        0.0188326         107.404
                               0               0                0               0        0.0189287         107.742         0.186935         74.1272
76.44                          0               0                0               0        0.0532149        -104.239         0.980542         161.978
                               0               0                0               0         0.980413         162.013        0.0529516        -104.307
                               0               0                0               0         0.190738         72.1867        0.0200026         102.431
                               0               0                0               0        0.0200619         102.793         0.190849         72.2303
76.485                         0               0                0               0        0.0506144        -105.641         0.979306         160.058
                               0               0                0               0         0.979192         160.072        0.0504818        -105.613
                               0               0                0               0         0.194362         70.3112        0.0211659         97.9026
                               0               0                0               0         0.021184         98.3059         0.194474         70.3531
76.53                          0               0                0               0        0.0481067        -106.999         0.977936         158.137
                               0               0                0               0         0.977983          158.12        0.0481173        -106.875
                               0               0                0               0         0.197715         68.4639        0.0223142          93.726
                               0               0                0               0        0.0222937         94.1862         0.197825         68.5038
76.575                         0               0                0               0        0.0456865        -108.294         0.976548         156.213
                               0               0                0               0         0.977049         156.161        0.0458358        -108.087
                               0               0                0               0         0.200835         66.6507        0.0234405         89.8219
                               0               0                0               0        0.0233914         90.3456          0.20094         66.6885
76.62                          0               0                0               0        0.0433481        -109.496         0.975367         154.289
                               0               0                0               0         0.976755         154.212        0.0436113        -109.244
                               0               0                0               0         0.203789         64.8711        0.0245375         86.1206
                               0               0                0               0        0.0244763         86.6991         0.203884         64.9078
76.665                         0               0                0               0        0.0410867        -110.573         0.974783         152.375
                               0               0                0               0         0.977315         152.318        0.0414142        -110.325
                               0               0                0               0         0.206666         63.1096        0.0255956         82.5628
                               0               0                0               0        0.0255422         83.1666         0.206751         63.1472
76.71                          0               0                0               0        0.0388996        -111.481         0.975235         150.516
                               0               0                0               0         0.978158         150.536        0.0392126        -111.294
                               0               0                0               0         0.209526         61.3265        0.0266016         79.1002
                               0               0                0               0        0.0265728         79.6777         0.209609         61.3671
76.755                         0               0                0               0        0.0367874        -112.172         0.976317         148.802
                               0               0                0               0         0.977843         148.878        0.0369756        -112.085
                               0               0                0               0         0.212294         59.4645        0.0275376         75.6978
                               0               0                0               0        0.0275395         76.1822         0.212391         59.5072
76.8                           0               0                0               0        0.0347557        -112.582         0.975587         147.269
                               0               0                0               0         0.975469         147.275        0.0346791        -112.586
                               0               0                0               0         0.214694         57.4943        0.0283823         72.3368
                               0               0                0               0        0.0284033         72.6624         0.214812         57.5339
76.845                         0               0                0               0        0.0328173        -112.642         0.971364         145.769
                               0               0                0               0         0.971426         145.662        0.0323195        -112.609
                               0               0                0               0         0.216421         55.4602        0.0291126         69.0168
                               0               0                0               0        0.0291223         69.1412         0.216544         55.4923
76.89                          0               0                0               0        0.0309936        -112.274         0.965259         144.179
                               0               0                0               0           0.9665         144.019        0.0299368         -111.87
                               0               0                0               0         0.217399         53.4471        0.0297081         65.7553
                               0               0                0               0        0.0296648         65.6781         0.217506         53.4729
76.935                         0               0                0               0        0.0293167        -111.397         0.958972         142.516
                               0               0                0               0         0.961207         142.355        0.0276477        -109.991
                               0               0                0               0         0.217775         51.5138        0.0301549         62.5853
                               0               0                0               0        0.0300206         62.3517         0.217859         51.5373
76.98                          0               0                0               0        0.0278305        -109.945         0.953001         140.826
                               0               0                0               0         0.955781         140.685        0.0256772        -106.607
                               0               0                0               0         0.217737         49.6758          0.03045         59.5476
                               0               0                0               0         0.030204         59.2349         0.217801         49.7004
77.025                         0               0                0               0        0.0265896        -107.884         0.947333         139.136
                               0               0                0               0         0.950309         139.019         0.024342        -101.668
                               0               0                0               0         0.217418         47.9257        0.0306021         56.6833
                               0               0                0               0        0.0302474         56.3767         0.217471         47.9527
77.07                          0               0                0               0        0.0256545        -105.243         0.941871          137.46
                               0               0                0               0         0.944821         137.364        0.0239283        -95.8165
                               0               0                0               0         0.216895         46.2502        0.0306306         54.0248
                               0               0                0               0        0.0301904         53.7948         0.216942         46.2798
77.115                         0               0                0               0        0.0250838        -102.138         0.936538         135.805
                               0               0                0               0          0.93933         135.726        0.0245001        -90.2857
                               0               0                0               0         0.216207         44.6378        0.0305611         51.5916
                               0               0                0               0        0.0300699         51.4813         0.216254         44.6697
77.16                          0               0                0               0        0.0249209        -98.7792         0.931288         134.171
                               0               0                0               0         0.933849         134.106         0.025833        -86.1218
                               0               0                0               0         0.215378         43.0797        0.0304212         49.3882
                               0               0                0               0        0.0299152         49.4114         0.215428         43.1133
77.205                         0               0                0               0        0.0251825        -95.4424         0.926101         132.561