! TOUCHSTONE file generated by CST MICROWAVE STUDIO
! Date and time: Sun Jun 20 22:37:19 2021
! Project name: HIPS_d_sweep.cst
! Parameters = {fmax=120; fmin=75; b=0.46; d=20.2; a=0.63; phi=0; theta=0}
! Header version: 2018
! Port assignment regex: !\s*Touchstone port\s*([0-9]+)\s*=\s*(CST MWS port|CST DS port)\s*([0-9]+|Zmin|Zmax)\s*\(\"(.*)\"\)(\s*mode\s*([0-9]+))?.*
! Touchstone port assignment:
! Touchstone port 1 = CST MWS port Zmin ("") mode 1
! Touchstone port 2 = CST MWS port Zmin ("") mode 2
! Touchstone port 3 = CST MWS port Zmax ("") mode 1
! Touchstone port 4 = CST MWS port Zmax ("") mode 2
! S-Parameters are not renormalized. Unphysical impedance of 0 will be written to the file.
# GHz S MA R 0
75                             0               0                0               0         0.164963         88.0233         0.974654        -1.44416
                               0               0                0               0         0.974692        -1.43907         0.164979         87.9836
                               0               0                0               0         0.149534         87.8466        0.0273465        -159.018
                               0               0                0               0        0.0273355        -159.084         0.149553         87.8353
75.045                         0               0                0               0         0.167228         87.7091         0.977757        -2.10008
                               0               0                0               0          0.97771        -2.06185         0.166842         87.6043
                               0               0                0               0         0.151023         87.1887        0.0278184        -160.939
                               0               0                0               0         0.027797        -160.926         0.150961         87.1971
75.09                          0               0                0               0         0.169383          87.274         0.979819        -2.80249
                               0               0                0               0         0.979623        -2.73986         0.168674         87.1246
                               0               0                0               0           0.1526         86.4661        0.0282706        -162.979
                               0               0                0               0        0.0282362        -162.903          0.15247         86.4873
75.135                         0               0                0               0         0.171411         86.7171         0.980907        -3.56109
                               0               0                0               0         0.980534         -3.4827         0.170455         86.5412
                               0               0                0               0         0.154273         85.6798        0.0287049         -165.15
                               0               0                0               0        0.0286561        -165.029         0.154091         85.7082
75.18                          0               0                0               0         0.173292         86.0386         0.981126        -4.38428
                               0               0                0               0         0.980579        -4.29809         0.172164         85.8515
                               0               0                0               0          0.15605         84.8317        0.0291239        -167.463
                               0               0                0               0        0.0290607        -167.314         0.155832         84.8629
75.225                         0               0                0               0         0.175005         85.2399         0.980611        -5.27872
                               0               0                0               0          0.97992        -5.19155         0.173779         85.0542
                               0               0                0               0         0.157937         83.9239        0.0295313        -169.929
                               0               0                0               0        0.0294547        -169.767         0.157697         83.9544
75.27                          0               0                0               0         0.176531         84.3239         0.979515        -6.24891
                               0               0                0               0         0.978728        -6.16612         0.175275         84.1489
                               0               0                0               0         0.159939         82.9589        0.0299315        -172.555
                               0               0                0               0        0.0298439        -172.394         0.159692         82.9865
75.315                         0               0                0               0         0.177847         83.2944         0.977999        -7.29711
                               0               0                0               0         0.977173        -7.22251         0.176624         83.1368
                               0               0                0               0         0.162057         81.9391          0.03033        -175.349
                               0               0                0               0        0.0302345          -175.2         0.161817         81.9624
75.36                          0               0                0               0         0.178936         82.1567         0.976221        -8.42333
                               0               0                0               0         0.975416        -8.35922         0.177801         82.0202
                               0               0                0               0         0.164291         80.8674        0.0307327        -178.314
                               0               0                0               0        0.0306331        -178.185         0.164069         80.8857
75.405                         0               0                0               0         0.179777         80.9173         0.974328         -9.6256
                               0               0                0               0         0.973595        -9.57295         0.178777         80.8031
                               0               0                0               0         0.166638         79.7463        0.0311459         178.549
                               0               0                0               0        0.0310465          178.65         0.166444         79.7594
75.45                          0               0                0               0         0.180356          79.584         0.972444        -10.9003
                               0               0                0               0         0.971827         -10.859         0.179529         79.4909
                               0               0                0               0         0.169094         78.5782        0.0315762         175.242
                               0               0                0               0        0.0314815         175.312         0.168936         78.5864
75.495                         0               0                0               0         0.180661         78.1654         0.970671        -12.2425
                               0               0                0               0         0.970201        -12.2118         0.180032         78.0905
                               0               0                0               0         0.171652         77.3652          0.03203         171.771
                               0               0                0               0        0.0319441         171.807         0.171534         77.3689
75.54                          0               0                0               0         0.180681         76.6713         0.969087        -13.6467
                               0               0                0               0         0.968782        -13.6252         0.180267         76.6103
                               0               0                0               0           0.1743         76.1093        0.0325131         168.144
                               0               0                0               0          0.03244         168.147         0.174227         76.1091
75.585                         0               0                0               0         0.180414         75.1121         0.967742        -15.1065
                               0               0                0               0          0.96761        -15.0928         0.180219         75.0597
                               0               0                0               0         0.177029         74.8121        0.0330305         164.373
                               0               0                0               0        0.0329735         164.346         0.177002         74.8086
75.63                          0               0                0               0         0.179861         73.4985         0.966668        -16.6159
                               0               0                0               0         0.966703        -16.6083          0.17988         73.4493
                               0               0                0               0         0.179824         73.4751        0.0335861         160.472
                               0               0                0               0        0.0335477         160.418         0.179843         73.4688
75.675                         0               0                0               0         0.179026         71.8416         0.965872        -18.1688
                               0               0                0               0         0.966065        -18.1657         0.179245         71.7902
                               0               0                0               0         0.182669         72.0994        0.0341824         156.458
                               0               0                0               0        0.0341642         156.381         0.182733         72.0907
75.72                          0               0                0               0         0.177922         70.1525          0.96535        -19.7593
                               0               0                0               0         0.965682        -19.7595         0.178319         70.0941
                               0               0                0               0         0.185547          70.686        0.0348203          152.35
                               0               0                0               0        0.0348227         152.254         0.185652         70.6752
75.765                         0               0                0               0         0.176564         68.4419         0.965083        -21.3822
                               0               0                0               0         0.965532        -21.3845         0.177111         68.3727
                               0               0                0               0         0.188439         69.2358        0.0354986         148.166
                               0               0                0               0        0.0355215         148.058         0.188582         69.2233
75.81                          0               0                0               0         0.174971         66.7201         0.965041        -23.0327
                               0               0                0               0         0.965584        -23.0362         0.175637         66.6372
                               0               0                0               0         0.191324         67.7498        0.0362146         143.926
                               0               0                0               0        0.0362566          143.81           0.1915         67.7356
75.855                         0               0                0               0         0.173166         64.9967         0.965191        -24.7063
                               0               0                0               0         0.965804        -24.7104         0.173918         64.8986
                               0               0                0               0         0.194182         66.2289        0.0369638         139.651
                               0               0                0               0        0.0370227         139.531         0.194384         66.2131
75.9                           0               0                0               0         0.171174         63.2804         0.965492        -26.3994
                               0               0                0               0         0.966152        -26.4034          0.17198         63.1669
                               0               0                0               0         0.196989         64.6742        0.0377399         135.359
                               0               0                0               0        0.0378131         135.238         0.197212         64.6568
75.945                         0               0                0               0         0.169022          61.579         0.965904        -28.1084
                               0               0                0               0         0.966588        -28.1121         0.169851         61.4509
                               0               0                0               0         0.199723         63.0868        0.0385353         131.068
                               0               0                0               0        0.0386196          130.95          0.19996         63.0679
75.99                          0               0                0               0         0.166737         59.8993         0.966385        -29.8303
                               0               0                0               0         0.967072        -29.8335         0.167561         59.7586
                               0               0                0               0         0.202359         61.4683        0.0393415         126.796
                               0               0                0               0        0.0394334         126.683         0.202604         61.4481
76.035                         0               0                0               0         0.164346         58.2471         0.966893        -31.5626
                               0               0                0               0         0.967565         -31.565         0.165142         58.0964
                               0               0                0               0         0.204874         59.8204        0.0401491         122.558
                               0               0                0               0         0.040245         122.451          0.20512          59.799
76.08                          0               0                0               0         0.161877         56.6269         0.967389        -33.3029
                               0               0                0               0          0.96803        -33.3045         0.162624         56.4698
                               0               0                0               0         0.207245         58.1453        0.0409487         118.367
                               0               0                0               0         0.041045         118.268         0.207486         58.1229
76.125                         0               0                0               0         0.159353         55.0426         0.967834         -35.049
                               0               0                0               0         0.968432        -35.0497         0.160036         54.8828
                               0               0                0               0         0.209449         56.4454        0.0417307         114.238
                               0               0                0               0        0.0418242         114.146         0.209679         56.4222
76.17                          0               0                0               0         0.156798          53.497         0.968194         -36.799
                               0               0                0               0         0.968738        -36.7988         0.157407         53.3384
                               0               0                0               0         0.211463         54.7234        0.0424863         110.179
                               0               0                0               0        0.0425739         110.096         0.211679         54.6999
76.215                         0               0                0               0         0.154234         51.9921         0.968437        -38.5511
                               0               0                0               0         0.968919        -38.5502         0.154761         51.8385
                               0               0                0               0         0.213269         52.9825        0.0432073         106.202
                               0               0                0               0        0.0432863         106.127         0.213465         52.9591
76.26                          0               0                0               0         0.151678         50.5292         0.968535        -40.3039
                               0               0                0               0         0.968949         -40.302         0.152121         50.3843
                               0               0                0               0         0.214848         51.2261        0.0438866         102.314
                               0               0                0               0         0.043955         102.246         0.215021         51.2033
76.305                         0               0                0               0         0.149149         49.1087         0.968463        -42.0557
                               0               0                0               0         0.968806        -42.0529         0.149507         48.9759
                               0               0                0               0         0.216184          49.458        0.0445184         98.5223
                               0               0                0               0        0.0445746          98.462         0.216331         49.4363
76.35                          0               0                0               0         0.146659         47.7309           0.9682        -43.8051
                               0               0                0               0         0.968469        -43.8014         0.146936         47.6131
                               0               0                0               0         0.217264         47.6821        0.0450981         94.8318
                               0               0                0               0         0.045141         94.7787         0.217384         47.6622
76.395                         0               0                0               0         0.144221         46.3952         0.967727        -45.5507
                               0               0                0               0         0.967923        -45.5462         0.144421         46.2947
                               0               0                0               0         0.218078         45.9026        0.0456226         91.2469
                               0               0                0               0        0.0456517         91.2006          0.21817         45.8849
76.44                          0               0                0               0         0.141846         45.1009         0.967031        -47.2913
                               0               0                0               0         0.967156        -47.2859         0.141975         45.0196
                               0               0                0               0         0.218618         44.1237        0.0460902         87.7707
                               0               0                0               0        0.0461053         87.7308         0.218682         44.1087
76.485                         0               0                0               0         0.139541          43.847         0.966101        -49.0255
                               0               0                0               0         0.966158        -49.0192         0.139606         43.7861
                               0               0                0               0          0.21888         42.3497        0.0465003         84.4051
                               0               0                0               0        0.0465017         84.3713         0.218917         42.3379
76.53                          0               0                0               0         0.137314         42.6319         0.964929        -50.7523
                               0               0                0               0         0.964922        -50.7451         0.137323         42.5923
                               0               0                0               0         0.218864         40.5849        0.0468533         81.1512
                               0               0                0               0        0.0468416          81.123         0.218876         40.5767
76.575                         0               0                0               0         0.135169         41.4543         0.963513        -52.4703
                               0               0                0               0         0.963447        -52.4623          0.13513          41.436
                               0               0                0               0         0.218572         38.8333        0.0471507         78.0088
                               0               0                0               0        0.0471269         77.9859         0.218562          38.829
76.62                          0               0                0               0          0.13311         40.3125          0.96185        -54.1786
                               0               0                0               0         0.961732        -54.1697         0.133032         40.3152
                               0               0                0               0          0.21801         37.0991        0.0473949         74.9772
                               0               0                0               0        0.0473601         74.9592         0.217979         37.0988
76.665                         0               0                0               0         0.131141         39.2047         0.959944        -55.8761
                               0               0                0               0          0.95978        -55.8663         0.131031         39.2277
                               0               0                0               0         0.217185         35.3858        0.0475886         72.0549
                               0               0                0               0         0.047544         72.0413         0.217138         35.3897
76.71                          0               0                0               0         0.129262         38.1291         0.957799        -57.5617
                               0               0                0               0         0.957596        -57.5511         0.129128         38.1711
                               0               0                0               0         0.216108          33.697        0.0477351         69.2396
                               0               0                0               0        0.0476821           69.23         0.216047         33.7051
76.755                         0               0                0               0         0.127476         37.0837         0.955424        -59.2345
                               0               0                0               0         0.955188        -59.2232         0.127325         37.1434
                               0               0                0               0         0.214791         32.0358         0.047838         66.5286
                               0               0                0               0         0.047778         66.5225         0.214721         32.0479
76.8                           0               0                0               0         0.125782         36.0667         0.952828        -60.8937
                               0               0                0               0         0.952567        -60.8817         0.125621         36.1422
                               0               0                0               0         0.213249         30.4049        0.0479009         63.9189
                               0               0                0               0        0.0478354         63.9159         0.213173         30.4208
76.845                         0               0                0               0         0.124181         35.0762         0.950023        -62.5384
                               0               0                0               0         0.949744        -62.5259         0.124015         35.1654
                               0               0                0               0         0.211497         28.8069        0.0479278          61.407
                               0               0                0               0         0.047858         61.4065         0.211417         28.8262
76.89                          0               0                0               0         0.122673         34.1102         0.947024        -64.1679
                               0               0                0               0         0.946732         -64.155         0.122507          34.211
                               0               0                0               0         0.209551         27.2436        0.0479222          58.989
                               0               0                0               0        0.0478496         58.9905         0.209471         27.2659
76.935                         0               0                0               0         0.121255         33.1668         0.943847        -65.7815
                               0               0                0               0         0.943549        -65.7684         0.121094         33.2768
                               0               0                0               0         0.207429         25.7168        0.0478879         56.6611
                               0               0                0               0        0.0478136         56.6642          0.20735         25.7415
76.98                          0               0                0               0         0.119928          32.244         0.940508        -67.3788
                               0               0                0               0          0.94021        -67.3656         0.119776         32.3609
                               0               0                0               0         0.205145         24.2276        0.0478283         54.4192
                               0               0                0               0        0.0477534         54.4233         0.205071         24.2542
77.025                         0               0                0               0         0.118691         31.3401         0.937027        -68.9591
                               0               0                0               0         0.936733        -68.9461          0.11855         31.4613
                               0               0                0               0         0.202718          22.777        0.0477468         52.2591
                               0               0                0               0        0.0476722         52.2638          0.20265         22.8049
77.07                          0               0                0               0         0.117541         30.4529         0.933423        -70.5222
                               0               0                0               0         0.933137        -70.5094         0.117414         30.5762
                               0               0                0               0         0.200164         21.3655        0.0476463         50.1767
                               0               0                0               0         0.047573         50.1815         0.200103         21.3941
77.115                         0               0                0               0         0.116479         29.5807         0.929715        -72.0678
                               0               0                0               0         0.929442        -72.0554         0.116367         29.7036
                               0               0                0               0         0.197497         19.9934        0.0475298         48.1678
                               0               0                0               0        0.0474586         48.1722         0.197444          20.022
77.16                          0               0                0               0         0.115501         28.7215         0.925925        -73.5956
                               0               0                0               0         0.925667        -73.5839         0.115406         28.8418
                               0               0                0               0         0.194732         18.6607        0.0473998         46.2283
                               0               0                0               0        0.0473313         46.2318         0.194687         18.6886
77.205                         0               0                0               0         0.114607         27.8733         0.922073        -75.1056