! TOUCHSTONE file generated by CST MICROWAVE STUDIO
! Date and time: Sun Jun 20 22:37:06 2021
! Project name: HIPS_d_sweep.cst
! Parameters = {fmax=120; fmin=75; b=0.46; d=18.6; a=0.63; phi=0; theta=0}
! Header version: 2018
! Port assignment regex: !\s*Touchstone port\s*([0-9]+)\s*=\s*(CST MWS port|CST DS port)\s*([0-9]+|Zmin|Zmax)\s*\(\"(.*)\"\)(\s*mode\s*([0-9]+))?.*
! Touchstone port assignment:
! Touchstone port 1 = CST MWS port Zmin ("") mode 1
! Touchstone port 2 = CST MWS port Zmin ("") mode 2
! Touchstone port 3 = CST MWS port Zmax ("") mode 1
! Touchstone port 4 = CST MWS port Zmax ("") mode 2
! S-Parameters are not renormalized. Unphysical impedance of 0 will be written to the file.
# GHz S MA R 0
75                             0               0                0               0         0.273527        -90.6579         0.951084        -179.742
                               0               0                0               0         0.951458        -179.721         0.273188         -90.685
                               0               0                0               0          0.13422         86.6654        0.0483373        -143.008
                               0               0                0               0        0.0482107        -142.926         0.134191         86.6271
75.045                         0               0                0               0         0.276704        -91.2254         0.949722         179.669
                               0               0                0               0         0.950349         179.693         0.276369        -91.2432
                               0               0                0               0         0.135252         85.9608        0.0486134        -144.408
                               0               0                0               0        0.0484663        -144.338         0.135246         85.9048
75.09                          0               0                0               0         0.279423        -91.8767         0.948586         178.998
                               0               0                0               0         0.949337         179.025         0.279076         -91.892
                               0               0                0               0         0.136411         85.2593        0.0489036        -145.967
                               0               0                0               0        0.0487435        -145.905         0.136409         85.1923
75.135                         0               0                0               0         0.281717         -92.606         0.947645         178.252
                               0               0                0               0         0.948426         178.281         0.281351        -92.6229
                               0               0                0               0         0.137713         84.5558        0.0492007        -147.696
                               0               0                0               0        0.0490337        -147.639         0.137705         84.4848
75.18                          0               0                0               0         0.283616        -93.4077         0.946868         177.434
                               0               0                0               0         0.947619         177.466         0.283232        -93.4284
                               0               0                0               0         0.139173         83.8433        0.0494963        -149.603
                               0               0                0               0        0.0493271         -149.55         0.139154         83.7747
75.225                         0               0                0               0         0.285144        -94.2766          0.94623          176.55
                               0               0                0               0          0.94691         176.582         0.284745         -94.302
                               0               0                0               0         0.140801         83.1137        0.0497819        -151.693
                               0               0                0               0        0.0496139        -151.641         0.140772         83.0519
75.27                          0               0                0               0         0.286323        -95.2077         0.945704         175.603
                               0               0                0               0         0.946293         175.634         0.285917        -95.2376
                               0               0                0               0         0.142603         82.3582        0.0500494        -153.968
                               0               0                0               0        0.0498851        -153.916         0.142568         82.3059
75.315                         0               0                0               0         0.287173        -96.1965         0.945268         174.597
                               0               0                0               0         0.945759         174.627         0.286765        -96.2302
                               0               0                0               0         0.144576         81.5684        0.0502921        -156.426
                               0               0                0               0        0.0501331        -156.373          0.14454         81.5259
75.36                          0               0                0               0         0.287712        -97.2385         0.944902         173.535
                               0               0                0               0         0.945298         173.562         0.287309         -97.275
                               0               0                0               0         0.146712         80.7368        0.0505056        -159.062
                               0               0                0               0        0.0503529        -159.006         0.146681         80.7031
75.405                         0               0                0               0         0.287955        -98.3299         0.944588         172.419
                               0               0                0               0           0.9449         172.443         0.287562         -98.368
                               0               0                0               0         0.148998         79.8579        0.0506881         -161.87
                               0               0                0               0        0.0505425         -161.81         0.148974          79.831
75.45                          0               0                0               0         0.287917         -99.467         0.944312         171.252
                               0               0                0               0         0.944554         171.273         0.287539        -99.5057
                               0               0                0               0         0.151418         78.9283        0.0508408         -164.84
                               0               0                0               0        0.0507026        -164.774         0.151401         78.9056
75.495                         0               0                0               0         0.287612        -100.647         0.944062         170.037
                               0               0                0               0         0.944251         170.055         0.287253        -100.685
                               0               0                0               0         0.153952         77.9465        0.0509678        -167.962
                               0               0                0               0        0.0508371        -167.891         0.153942         77.9258
75.54                          0               0                0               0         0.287055        -101.865         0.943831         168.775
                               0               0                0               0         0.943982         168.791         0.286715        -101.903
                               0               0                0               0         0.156581         76.9127        0.0510754        -171.223
                               0               0                0               0        0.0509522        -171.148         0.156575         76.8924
75.585                         0               0                0               0         0.286257        -103.121         0.943612          167.47
                               0               0                0               0         0.943741         167.482         0.285939        -103.157
                               0               0                0               0         0.159285         75.8288        0.0511722        -174.613
                               0               0                0               0        0.0510561        -174.535          0.15928         75.8077
75.63                          0               0                0               0         0.285235        -104.411         0.943404         166.122
                               0               0                0               0         0.943525         166.133         0.284936        -104.446
                               0               0                0               0         0.162045         74.6975        0.0512681         -178.12
                               0               0                0               0        0.0511586         -178.04         0.162039         74.6751
75.675                         0               0                0               0         0.284001        -105.733         0.943209         164.735
                               0               0                0               0          0.94333         164.744         0.283722        -105.766
                               0               0                0               0         0.164846         73.5221        0.0513734          178.27
                               0               0                0               0        0.0512696         178.347         0.164836         73.4983
75.72                          0               0                0               0          0.28257        -107.086         0.943029          163.31
                               0               0                0               0         0.943156         163.318          0.28231        -107.118
                               0               0                0               0          0.16767         72.3061        0.0514984         174.567
                               0               0                0               0        0.0513995          174.64         0.167656         72.2811
75.765                         0               0                0               0         0.280958        -108.466         0.942871         161.849
                               0               0                0               0         0.943007         161.857         0.280716        -108.498
                               0               0                0               0         0.170503          71.053        0.0516528         170.786
                               0               0                0               0        0.0515579         170.852         0.170484         71.0272
75.81                          0               0                0               0         0.279183        -109.873         0.942743         160.355
                               0               0                0               0         0.942886         160.363         0.278957        -109.906
                               0               0                0               0         0.173331         69.7661        0.0518453         166.939
                               0               0                0               0        0.0517534         166.995         0.173307         69.7398
75.855                         0               0                0               0          0.27726        -111.305         0.942654          158.83
                               0               0                0               0         0.942801         158.839         0.277049        -111.339
                               0               0                0               0         0.176141         68.4485        0.0520829         163.039
                               0               0                0               0        0.0519931         163.083         0.176113         68.4222
75.9                           0               0                0               0         0.275208        -112.761         0.942613         157.277
                               0               0                0               0         0.942757         157.287         0.275013        -112.796
                               0               0                0               0          0.17892          67.103        0.0523709           159.1
                               0               0                0               0        0.0522824         159.131          0.17889         67.0768
75.945                         0               0                0               0         0.273047        -114.237         0.942629         155.699
                               0               0                0               0         0.942763         155.709         0.272866        -114.275
                               0               0                0               0         0.181654          65.732        0.0527125         155.136
                               0               0                0               0        0.0526248         155.153         0.181624         65.7063
75.99                          0               0                0               0         0.270795        -115.733         0.942709         154.099
                               0               0                0               0         0.942825          154.11         0.270629        -115.774
                               0               0                0               0         0.184332         64.3378        0.0531092          151.16
                               0               0                0               0        0.0530218         151.163         0.184302         64.3126
76.035                         0               0                0               0         0.268472        -117.246         0.942857         152.479
                               0               0                0               0         0.942949         152.491         0.268321         -117.29
                               0               0                0               0         0.186939         62.9223        0.0535601         147.186
                               0               0                0               0        0.0534728         147.176          0.18691         62.8977
76.08                          0               0                0               0         0.266097        -118.773         0.943073         150.843
                               0               0                0               0         0.943135         150.856         0.265961        -118.821
                               0               0                0               0         0.189462         61.4875        0.0540627         143.226
                               0               0                0               0        0.0539754         143.203         0.189436         61.4635
76.125                         0               0                0               0          0.26369        -120.312         0.943353         149.195
                               0               0                0               0         0.943384         149.208         0.263568        -120.364
                               0               0                0               0         0.191888          60.035        0.0546127         139.292
                               0               0                0               0        0.0545252         139.258         0.191865         60.0116
76.17                          0               0                0               0         0.261266         -121.86         0.943688         147.539
                               0               0                0               0         0.943687         147.551         0.261158        -121.914
                               0               0                0               0         0.194202         58.5667        0.0552043         135.394
                               0               0                0               0        0.0551166         135.352         0.194183         58.5437
76.215                         0               0                0               0         0.258843        -123.413         0.944063         145.876
                               0               0                0               0         0.944034         145.888         0.258747        -123.469
                               0               0                0               0         0.196391         57.0842        0.0558304         131.543
                               0               0                0               0        0.0557425         131.494         0.196376         57.0616
76.26                          0               0                0               0         0.256433        -124.967         0.944458         144.211
                               0               0                0               0         0.944408         144.222         0.256348        -125.025
                               0               0                0               0         0.198442         55.5893        0.0564829         127.746
                               0               0                0               0        0.0563949         127.693         0.198429          55.567
76.305                         0               0                0               0         0.254049        -126.519         0.944851         142.546
                               0               0                0               0         0.944785         142.556         0.253972        -126.577
                               0               0                0               0         0.200339         54.0839        0.0571534         124.011
                               0               0                0               0        0.0570652         123.955          0.20033         54.0618
76.35                          0               0                0               0         0.251701        -128.064         0.945214         140.885
                               0               0                0               0         0.945141         140.894         0.251627        -128.122
                               0               0                0               0         0.202072         52.5699        0.0578328         120.344
                               0               0                0               0        0.0577444         120.288         0.202065          52.548
76.395                         0               0                0               0         0.249394        -129.599         0.945516         139.229
                               0               0                0               0         0.945444         139.237         0.249322        -129.656
                               0               0                0               0         0.203627         51.0494        0.0585121         116.749
                               0               0                0               0        0.0584235         116.695         0.203621         51.0276
76.44                          0               0                0               0         0.247134        -131.119         0.945726         137.581
                               0               0                0               0         0.945663         137.588          0.24706        -131.174
                               0               0                0               0         0.204995         49.5246        0.0591826         113.231
                               0               0                0               0        0.0590939         113.179         0.204989         49.5028
76.485                         0               0                0               0         0.244925        -132.622         0.945814         135.942
                               0               0                0               0         0.945765         135.949         0.244844        -132.674
                               0               0                0               0         0.206164         47.9977        0.0598359         109.792
                               0               0                0               0        0.0597472         109.744         0.206159         47.9759
76.53                          0               0                0               0         0.242766        -134.103         0.945748         134.313
                               0               0                0               0         0.945718          134.32         0.242677        -134.153
                               0               0                0               0         0.207127         46.4713        0.0604646         106.435
                               0               0                0               0        0.0603757         106.391         0.207121         46.4495
76.575                         0               0                0               0         0.240658        -135.559         0.945501         132.696
                               0               0                0               0         0.945492         132.704         0.240559        -135.607
                               0               0                0               0         0.207877         44.9478        0.0610617         103.161
                               0               0                0               0        0.0609727         103.121          0.20787          44.926
76.62                          0               0                0               0           0.2386        -136.989         0.945049         131.092
                               0               0                0               0          0.94506           131.1         0.238491        -137.034
                               0               0                0               0         0.208409         43.4299        0.0616215         99.9706
                               0               0                0               0        0.0615323         99.9347           0.2084         43.4081
76.665                         0               0                0               0         0.236591         -138.39         0.944369           129.5
                               0               0                0               0           0.9444         129.509         0.236471        -138.432
                               0               0                0               0          0.20872         41.9201         0.062139         96.8647
                               0               0                0               0        0.0620498         96.8319          0.20871         41.8984
76.71                          0               0                0               0         0.234629         -139.76         0.943444         127.922
                               0               0                0               0         0.943492         127.931         0.234499          -139.8
                               0               0                0               0         0.208809         40.4213        0.0626105         93.8431
                               0               0                0               0        0.0625212         93.8125         0.208798         40.3996
76.755                         0               0                0               0         0.232714        -141.098         0.942263         126.358
                               0               0                0               0         0.942323         126.367         0.232575        -141.136
                               0               0                0               0         0.208677          38.936        0.0630332         90.9053
                               0               0                0               0        0.0629439         90.8757         0.208665         38.9143
76.8                           0               0                0               0         0.230844        -142.403         0.940816         124.807
                               0               0                0               0         0.940883         124.816         0.230699         -142.44
                               0               0                0               0         0.208326         37.4669        0.0634056         88.0504
                               0               0                0               0         0.063316         88.0207         0.208314         37.4452
76.845                         0               0                0               0         0.229018        -143.675         0.939099          123.27
                               0               0                0               0         0.939167          123.28         0.228871        -143.711
                               0               0                0               0         0.207763         36.0164        0.0637266         85.2774
                               0               0                0               0        0.0636368         85.2462          0.20775         35.9946
76.89                          0               0                0               0         0.227239        -144.914         0.937112         121.748
                               0               0                0               0         0.937176         121.757         0.227092         -144.95
                               0               0                0               0         0.206992          34.587        0.0639966          82.585
                               0               0                0               0        0.0639064          82.551          0.20698          34.565
76.935                         0               0                0               0         0.225506        -146.119         0.934859          120.24
                               0               0                0               0         0.934912         120.248         0.225364        -146.155
                               0               0                0               0         0.206022         33.1809        0.0642165         79.9716
                               0               0                0               0        0.0641256         79.9336         0.206012         33.1586
76.98                          0               0                0               0         0.223822        -147.292         0.932346         118.746
                               0               0                0               0         0.932382         118.753         0.223688        -147.328
                               0               0                0               0         0.204863         31.8001        0.0643878         77.4354
                               0               0                0               0        0.0642961         77.3924         0.204855         31.7774
77.025                         0               0                0               0          0.22219        -148.432         0.929585         117.268
                               0               0                0               0         0.929597         117.273         0.222068         -148.47
                               0               0                0               0         0.203525         30.4466        0.0645127         74.9745
                               0               0                0               0        0.0644201         74.9256         0.203521         30.4234
77.07                          0               0                0               0         0.220612        -149.542         0.926587         115.805
                               0               0                0               0          0.92657         115.807         0.220505        -149.581
                               0               0                0               0          0.20202         29.1218         0.064594         72.5867
                               0               0                0               0        0.0645002         72.5314         0.202019          29.098
77.115                         0               0                0               0         0.219094        -150.621         0.923369         114.357
                               0               0                0               0         0.923317         114.357         0.219005        -150.663
                               0               0                0               0          0.20036         27.8273        0.0646347         70.2697
                               0               0                0               0        0.0645394         70.2077         0.200364         27.8027
77.16                          0               0                0               0         0.217639        -151.671          0.91995         112.926
                               0               0                0               0         0.919858         112.922         0.217569        -151.717
                               0               0                0               0         0.198559         26.5642        0.0646381         68.0213
                               0               0                0               0        0.0645413         67.9525         0.198566         26.5387
77.205                         0               0                0               0         0.216253        -152.695          0.91635          111.51