! TOUCHSTONE file generated by CST MICROWAVE STUDIO
! Date and time: Sun Jun 20 22:37:16 2021
! Project name: HIPS_d_sweep.cst
! Parameters = {fmax=120; fmin=75; b=0.46; d=19.85; a=0.63; phi=0; theta=0}
! Header version: 2018
! Port assignment regex: !\s*Touchstone port\s*([0-9]+)\s*=\s*(CST MWS port|CST DS port)\s*([0-9]+|Zmin|Zmax)\s*\(\"(.*)\"\)(\s*mode\s*([0-9]+))?.*
! Touchstone port assignment:
! Touchstone port 1 = CST MWS port Zmin ("") mode 1
! Touchstone port 2 = CST MWS port Zmin ("") mode 2
! Touchstone port 3 = CST MWS port Zmax ("") mode 1
! Touchstone port 4 = CST MWS port Zmax ("") mode 2
! S-Parameters are not renormalized. Unphysical impedance of 0 will be written to the file.
# GHz S MA R 0
75                             0               0                0               0         0.199419         128.761         0.978266         38.9661
                               0               0                0               0         0.978197         38.9637         0.199606         128.762
                               0               0                0               0        0.0148776         84.4584        0.0526474        -53.6847
                               0               0                0               0        0.0525529        -53.7219        0.0148116         84.5029
75.045                         0               0                0               0          0.19909         127.317         0.978989         37.5569
                               0               0                0               0         0.978758         37.5489          0.19921         127.322
                               0               0                0               0        0.0177528         93.3017         0.052278        -56.0201
                               0               0                0               0        0.0521822        -55.9678        0.0176896         93.3731
75.09                          0               0                0               0         0.198725         125.865         0.979669         36.1438
                               0               0                0               0         0.979283         36.1312         0.198782         125.876
                               0               0                0               0        0.0210721         99.3379        0.0518786        -58.4319
                               0               0                0               0        0.0517851        -58.2916        0.0210117         99.4176
75.135                         0               0                0               0         0.198322         124.405         0.980305         34.7269
                               0               0                0               0         0.979772         34.7104         0.198321         124.422
                               0               0                0               0        0.0246973         103.447        0.0514479        -60.9228
                               0               0                0               0        0.0513602        -60.6964        0.0246392         103.526
75.18                          0               0                0               0         0.197881         122.938         0.980896         33.3062
                               0               0                0               0         0.980227         33.2866         0.197827         122.962
                               0               0                0               0        0.0285477          106.24        0.0509844        -63.4955
                               0               0                0               0         0.050906        -63.1854        0.0284914         106.316
75.225                         0               0                0               0         0.197399         121.463         0.981444         31.8818
                               0               0                0               0         0.980648         31.8598         0.197297         121.495
                               0               0                0               0        0.0325754         108.115         0.050487        -66.1527
                               0               0                0               0        0.0504212        -65.7616        0.0325203         108.187
75.27                          0               0                0               0         0.196876         119.981         0.981948         30.4536
                               0               0                0               0         0.981035         30.4298         0.196731         120.022
                               0               0                0               0        0.0367502         109.331        0.0499546         -68.897
                               0               0                0               0        0.0499044        -68.4282        0.0366959         109.399
75.315                         0               0                0               0          0.19631         118.493         0.982408         29.0216
                               0               0                0               0         0.981388         28.9968         0.196128         118.543
                               0               0                0               0        0.0410523         110.059        0.0493865         -71.731
                               0               0                0               0        0.0493546        -71.1881        0.0409986         110.122
75.36                          0               0                0               0         0.195699         116.997         0.982824         27.5859
                               0               0                0               0         0.981708         27.5605         0.195485         117.057
                               0               0                0               0        0.0454678         110.413        0.0487819        -74.6573
                               0               0                0               0        0.0487707        -74.0444        0.0454144         110.473
75.405                         0               0                0               0         0.195042         115.496         0.983196         26.1464
                               0               0                0               0         0.981996          26.121         0.194802         115.565
                               0               0                0               0         0.049986         110.475        0.0481408        -77.6782
                               0               0                0               0        0.0481523        -76.9999        0.0499328         110.532
75.45                          0               0                0               0         0.194339         113.989         0.983524         24.7031
                               0               0                0               0          0.98225         24.6782         0.194076         114.068
                               0               0                0               0        0.0545981         110.302        0.0474632        -80.7961
                               0               0                0               0        0.0474988        -80.0576         0.054545         110.357
75.495                         0               0                0               0         0.193587         112.477         0.983807          23.256
                               0               0                0               0         0.982471         23.2321         0.193308         112.566
                               0               0                0               0        0.0592963         109.936        0.0467496        -84.0131
                               0               0                0               0        0.0468104          -83.22        0.0592432         109.988
75.54                          0               0                0               0         0.192785         110.961         0.984046          21.805
                               0               0                0               0         0.982659         21.7825         0.192495         111.059
                               0               0                0               0        0.0640731         109.408         0.046001        -87.3313
                               0               0                0               0        0.0460876        -86.4896        0.0640201         109.458
75.585                         0               0                0               0         0.191931          109.44         0.984238         20.3503
                               0               0                0               0         0.982814         20.3293         0.191635         109.547
                               0               0                0               0        0.0689212         108.741        0.0452191        -90.7526
                               0               0                0               0        0.0453312        -89.8688        0.0688682         108.789
75.63                          0               0                0               0         0.191026         107.915         0.984385         18.8916
                               0               0                0               0         0.982934         18.8725         0.190729         108.031
                               0               0                0               0        0.0738327         107.954        0.0444058        -94.2785
                               0               0                0               0        0.0445429        -93.3595        0.0737799             108
75.675                         0               0                0               0         0.190067         106.387         0.984485          17.429
                               0               0                0               0         0.983019         17.4121         0.189773         106.512
                               0               0                0               0        0.0787994         107.062        0.0435638        -97.9105
                               0               0                0               0        0.0437248        -96.9636        0.0787468         107.106
75.72                          0               0                0               0         0.189054         104.858         0.984536         15.9624
                               0               0                0               0         0.983068         15.9478         0.188766          104.99
                               0               0                0               0        0.0838126         106.075        0.0426966         -101.65
                               0               0                0               0        0.0428797        -100.682        0.0837602         106.118
75.765                         0               0                0               0         0.187985         103.326         0.984539         14.4919
                               0               0                0               0          0.98308         14.4796         0.187709         103.466
                               0               0                0               0        0.0888625         105.004        0.0418081        -105.497
                               0               0                0               0         0.042011        -104.517        0.0888106         105.046
75.81                          0               0                0               0          0.18686         101.795         0.984491         13.0172
                               0               0                0               0         0.983052         13.0073         0.186598         101.941
                               0               0                0               0        0.0939389         103.857        0.0409029        -109.453
                               0               0                0               0        0.0411229        -108.468        0.0938875         103.897
75.855                         0               0                0               0         0.185678         100.263         0.984391         11.5385
                               0               0                0               0         0.982984         11.5309         0.185433         100.415
                               0               0                0               0        0.0990307          102.64        0.0399862        -113.517
                               0               0                0               0        0.0402203        -112.536        0.0989799         102.679
75.9                           0               0                0               0         0.184439         98.7335         0.984238         10.0555
                               0               0                0               0         0.982872         10.0502         0.184214         98.8891
                               0               0                0               0         0.104126         101.359        0.0390636        -117.689
                               0               0                0               0        0.0393086        -116.719         0.104076         101.398
75.945                         0               0                0               0         0.183142         97.2061         0.984028         8.56838
                               0               0                0               0         0.982715         8.56518         0.182938         97.3648
                               0               0                0               0         0.109212          100.02        0.0381416        -121.968
                               0               0                0               0         0.038394        -121.018         0.109163         100.058
75.99                          0               0                0               0         0.181787         95.6824          0.98376         7.07693
                               0               0                0               0         0.982509         7.07561         0.181607          95.843
                               0               0                0               0         0.114275         98.6284        0.0372265        -126.352
                               0               0                0               0        0.0374829        -125.429         0.114227         98.6645
76.035                         0               0                0               0         0.180374         94.1637         0.983432         5.58112
                               0               0                0               0          0.98225         5.58139         0.180218          94.325
                               0               0                0               0         0.119302         97.1875        0.0363255        -130.837
                               0               0                0               0        0.0365823        -129.949         0.119255         97.2225
76.08                          0               0                0               0         0.178903         92.6513         0.983039         4.08089
                               0               0                0               0         0.981936         4.08241         0.178772         92.8121
                               0               0                0               0         0.124278         95.7022        0.0354454        -135.421
                               0               0                0               0        0.0356996        -134.575         0.124232         95.7361
76.125                         0               0                0               0         0.177376         91.1468         0.982578         2.57618
                               0               0                0               0          0.98156         2.57855         0.177269         91.3058
                               0               0                0               0         0.129188         94.1766        0.0345934        -140.097
                               0               0                0               0        0.0348418          -139.3         0.129143         94.2093
76.17                          0               0                0               0         0.175793         89.6517         0.982046         1.06694
                               0               0                0               0          0.98112         1.06971         0.175709         89.8077
                               0               0                0               0         0.134017         92.6147        0.0337763         -144.86
                               0               0                0               0        0.0340165        -144.117         0.133973         92.6463
76.215                         0               0                0               0         0.174155         88.1678         0.981439       -0.446892
                               0               0                0               0         0.980607       -0.444214         0.174094         88.3196
                               0               0                0               0          0.13875         91.0207        0.0330007          -149.7
                               0               0                0               0        0.0332304        -149.018         0.138707         91.0511
76.26                          0               0                0               0         0.172465         86.6968          0.98075        -1.96535
                               0               0                0               0         0.980017         -1.9633         0.172424         86.8433
                               0               0                0               0         0.143373         89.3982        0.0322727        -154.608
                               0               0                0               0        0.0324902        -153.991         0.143331         89.4275
76.305                         0               0                0               0         0.170724         85.2406         0.979975        -3.48846
                               0               0                0               0         0.979343        -3.48762         0.170701         85.3808
                               0               0                0               0         0.147871         87.7514        0.0315977        -159.572
                               0               0                0               0        0.0318018        -159.025         0.147829         87.7794
76.35                          0               0                0               0         0.168935         83.8013         0.979108        -5.01623
                               0               0                0               0         0.978576        -5.01721         0.168928         83.9342
                               0               0                0               0          0.15223          86.084        0.0309805        -164.578
                               0               0                0               0        0.0311703        -164.104         0.152189         86.1108
76.395                         0               0                0               0         0.167101          82.381         0.978142        -6.54866
                               0               0                0               0         0.977709        -6.55206         0.167106         82.5057
                               0               0                0               0         0.156438         84.3998        0.0304247        -169.611
                               0               0                0               0           0.0306        -169.213         0.156397         84.4254
76.44                          0               0                0               0         0.165225         80.9817          0.97707         -8.0857
                               0               0                0               0         0.976733        -8.09216          0.16524         81.0978
                               0               0                0               0         0.160482         82.7026        0.0299331        -174.655
                               0               0                0               0         0.030094        -174.333         0.160442          82.727
76.485                         0               0                0               0         0.163312          79.606         0.975884        -9.62729
                               0               0                0               0         0.975636        -9.63741         0.163332         79.7129
                               0               0                0               0         0.164351         80.9961        0.0295075        -179.691
                               0               0                0               0        0.0296544        -179.446         0.164311         81.0193
76.53                          0               0                0               0         0.161367          78.256         0.974575        -11.1733
                               0               0                0               0          0.97441        -11.1877         0.161389         78.3536
                               0               0                0               0         0.168037         79.2839        0.0291485         175.298
                               0               0                0               0         0.029282         175.467         0.167997         79.3059
76.575                         0               0                0               0         0.159395         76.9341         0.973134        -12.7236
                               0               0                0               0         0.973042        -12.7428         0.159415         77.0224
                               0               0                0               0         0.171531         77.5694        0.0288557         170.331
                               0               0                0               0        0.0289767         170.427          0.17149         77.5903
76.62                          0               0                0               0         0.157401         75.6428         0.971552        -14.2779
                               0               0                0               0         0.971521        -14.3023         0.157417         75.7219
                               0               0                0               0         0.174826         75.8561        0.0286278         165.426
                               0               0                0               0        0.0287373         165.451         0.174785         75.8759
76.665                         0               0                0               0         0.155392         74.3845         0.969817         -15.836
                               0               0                0               0         0.969834        -15.8661           0.1554         74.4549
                               0               0                0               0         0.177918         74.1471        0.0284626         160.599
                               0               0                0               0        0.0285615         160.557         0.177876         74.1659
76.71                          0               0                0               0         0.153376         73.1615         0.967919        -17.3974
                               0               0                0               0         0.967968        -17.4334         0.153373         73.2239
                               0               0                0               0         0.180804         72.4455         0.028357         155.866
                               0               0                0               0        0.0284464         155.762          0.18076         72.4634
76.755                         0               0                0               0         0.151361         71.9761         0.965846        -18.9617
                               0               0                0               0         0.965911        -19.0038         0.151345         72.0314
                               0               0                0               0          0.18348         70.7541        0.0283076          151.24
                               0               0                0               0        0.0283884          151.08         0.183435          70.771
76.8                           0               0                0               0         0.149354         70.8304         0.963586        -20.5283
                               0               0                0               0          0.96365        -20.5765         0.149323         70.8796
                               0               0                0               0         0.185948         69.0754        0.0283104         146.733
                               0               0                0               0        0.0283834         146.522         0.185901         69.0916
76.845                         0               0                0               0         0.147365         69.7263         0.961129        -22.0964
                               0               0                0               0         0.961173        -22.1504         0.147318         69.7706
                               0               0                0               0         0.188208          67.412         0.028361         142.353
                               0               0                0               0         0.028427         142.098         0.188159         67.4275
76.89                          0               0                0               0         0.145403         68.6655         0.958462        -23.6653
                               0               0                0               0         0.958468        -23.7247          0.14534         68.7062
                               0               0                0               0         0.190263          65.766        0.0284551         138.109
                               0               0                0               0        0.0285148         137.815         0.190212         65.7808
76.935                         0               0                0               0         0.143479         67.6492         0.955576        -25.2337
                               0               0                0               0         0.955525        -25.2979           0.1434         67.6878
                               0               0                0               0         0.192117         64.1392        0.0285882         134.003
                               0               0                0               0        0.0286421         133.678         0.192064         64.1534
76.98                          0               0                0               0         0.141602         66.6782          0.95246        -26.8005
                               0               0                0               0         0.952335        -26.8687         0.141508         66.7162
                               0               0                0               0         0.193774         62.5334         0.028756          130.04
                               0               0                0               0        0.0288046         129.688         0.193718         62.5472
77.025                         0               0                0               0         0.139783         65.7531         0.949106        -28.3644
                               0               0                0               0         0.948895        -28.4355         0.139675         65.7916
                               0               0                0               0         0.195241           60.95        0.0289543          126.22
                               0               0                0               0         0.028998         125.848         0.195182         60.9634
77.07                          0               0                0               0         0.138033         64.8734          0.94551        -29.9237
                               0               0                0               0         0.945201        -29.9963         0.137914         64.9138
                               0               0                0               0         0.196523         59.3901        0.0291791         122.541
                               0               0                0               0        0.0292183         122.155         0.196462         59.4032
77.115                         0               0                0               0         0.136361         64.0385         0.941669        -31.4766
                               0               0                0               0         0.941254        -31.5493         0.136233         64.0818
                               0               0                0               0         0.197628         57.8549        0.0294267         119.003
                               0               0                0               0        0.0294618         118.607         0.197565         57.8678
77.16                          0               0                0               0         0.134778         63.2466         0.937584        -33.0211
                               0               0                0               0         0.937062        -33.0923         0.134645         63.2935
                               0               0                0               0         0.198563         56.3449         0.029694         115.601
                               0               0                0               0        0.0297252         115.202         0.198498         56.3577
77.205                         0               0                0               0         0.133294         62.4953         0.933262        -34.5551