! TOUCHSTONE file generated by CST MICROWAVE STUDIO
! Date and time: Sun Jun 20 22:38:16 2021
! Project name: HIPS_d_sweep.cst
! Parameters = {fmax=120; fmin=75; b=0.46; d=25.55; a=0.63; phi=0; theta=0}
! Header version: 2018
! Port assignment regex: !\s*Touchstone port\s*([0-9]+)\s*=\s*(CST MWS port|CST DS port)\s*([0-9]+|Zmin|Zmax)\s*\(\"(.*)\"\)(\s*mode\s*([0-9]+))?.*
! Touchstone port assignment:
! Touchstone port 1 = CST MWS port Zmin ("") mode 1
! Touchstone port 2 = CST MWS port Zmin ("") mode 2
! Touchstone port 3 = CST MWS port Zmax ("") mode 1
! Touchstone port 4 = CST MWS port Zmax ("") mode 2
! S-Parameters are not renormalized. Unphysical impedance of 0 will be written to the file.
# GHz S MA R 0
75                             0               0                0               0         0.190544         21.5581         0.959661         112.811
                               0               0                0               0         0.959683         112.817         0.190576         21.5359
                               0               0                0               0          0.20162         21.6231        0.0444217        -40.9581
                               0               0                0               0        0.0443523        -41.1273         0.201524         21.6305
75.045                         0               0                0               0         0.184915         21.5101         0.963666         111.921
                               0               0                0               0         0.963236         111.926         0.184668         21.5276
                               0               0                0               0          0.20062         20.6626        0.0437729        -41.5354
                               0               0                0               0        0.0436938        -41.7662         0.200498         20.6687
75.09                          0               0                0               0         0.180075         21.0645          0.96684         110.978
                               0               0                0               0         0.966086         110.979         0.179659           21.09
                               0               0                0               0         0.199436         19.6613         0.043034        -42.2606
                               0               0                0               0        0.0429535        -42.5412         0.199296         19.6661
75.135                         0               0                0               0         0.176049         20.3054         0.969241         109.974
                               0               0                0               0         0.968281         109.972         0.175551         20.3227
                               0               0                0               0         0.198058         18.6161        0.0422144        -43.1516
                               0               0                0               0        0.0421386        -43.4697         0.197903         18.6194
75.18                          0               0                0               0         0.172802         19.3032         0.970942         108.905
                               0               0                0               0         0.969881         108.898         0.172285         19.3058
                               0               0                0               0         0.196474         17.5236        0.0413244        -44.2254
                               0               0                0               0        0.0412573        -44.5689          0.19631         17.5254
75.225                         0               0                0               0         0.170276          18.114         0.972037         107.763
                               0               0                0               0         0.970962         107.754         0.169782         18.1009
                               0               0                0               0         0.194672         16.3805        0.0403744        -45.4984
                               0               0                0               0        0.0403182        -45.8558         0.194503          16.381
75.27                          0               0                0               0         0.168402         16.7818         0.972628         106.546
                               0               0                0               0         0.971608         106.535         0.167955         16.7549
                               0               0                0               0          0.19264         15.1836        0.0393749        -46.9869
                               0               0                0               0        0.0393301        -47.3477         0.192472          15.183
75.315                         0               0                0               0         0.167111         15.3398         0.972823          105.25
                               0               0                0               0         0.971908          105.24         0.166725         15.3022
                               0               0                0               0         0.190369         13.9298        0.0383357         -48.707
                               0               0                0               0        0.0383021        -49.0619         0.190204         13.9285
75.36                          0               0                0               0         0.166339         13.8131         0.972731         103.875
                               0               0                0               0         0.971952         103.866          0.16602         13.7682
                               0               0                0               0         0.187848         12.6165        0.0372665        -50.6753
                               0               0                0               0        0.0372427        -51.0164         0.187689         12.6147
75.405                         0               0                0               0         0.166029           12.22         0.972453          102.42
                               0               0                0               0         0.971825         102.414         0.165776         12.1709
                               0               0                0               0         0.185066         11.2411        0.0361764        -52.9092
                               0               0                0               0        0.0361608        -53.2302         0.184914         11.2393
75.45                          0               0                0               0         0.166133         10.5735         0.972084         100.887
                               0               0                0               0         0.971608         100.884         0.165942         10.5228
                               0               0                0               0         0.182013         9.80174        0.0350739        -55.4274
                               0               0                0               0        0.0350647        -55.7233         0.181871         9.80017
75.495                         0               0                0               0         0.166606         8.88299         0.971705         99.2779
                               0               0                0               0         0.971372          99.279         0.166471         8.83261
                               0               0                0               0         0.178679           8.297        0.0339676          -58.25
                               0               0                0               0        0.0339628        -58.5175         0.178547         8.29596
75.54                          0               0                0               0         0.167414         7.15435         0.971382         97.5952
                               0               0                0               0         0.971174         97.6004         0.167325         7.10577
                               0               0                0               0         0.175055          6.7261        0.0328658        -61.3992
                               0               0                0               0        0.0328638        -61.6364         0.174932         6.72583
75.585                         0               0                0               0         0.168525         5.39137         0.971165         95.8426
                               0               0                0               0         0.971061         95.8515         0.168474         5.34551
                               0               0                0               0         0.171133         5.08905        0.0317774        -64.8991
                               0               0                0               0        0.0317768        -65.1054         0.171019         5.08968
75.63                          0               0                0               0         0.169912         3.59601          0.97109          94.024
                               0               0                0               0         0.971066         94.0361          0.16989         3.55337
                               0               0                0               0         0.166904         3.38666        0.0307119         -68.776
                               0               0                0               0        0.0307115        -68.9522         0.166796         3.38827
75.675                         0               0                0               0         0.171554          1.7689         0.971177         92.1439
                               0               0                0               0         0.971208         92.1581         0.171552         1.72958
                               0               0                0               0          0.16236         1.62078        0.0296799        -73.0577
                               0               0                0               0        0.0296789        -73.2056         0.162258         1.62335
75.72                          0               0                0               0         0.173431       -0.090305          0.97143         90.2064
                               0               0                0               0         0.971493         90.2216          0.17344       -0.126512
                               0               0                0               0         0.157496       -0.205712        0.0286937        -77.7726
                               0               0                0               0        0.0286918        -77.8953         0.157398       -0.202227
75.765                         0               0                0               0         0.175528         -1.9827         0.971843          88.216
                               0               0                0               0         0.971916         88.2311         0.175539        -2.01628
                               0               0                0               0         0.152309        -2.08867        0.0277674        -82.9481
                               0               0                0               0        0.0277644        -83.0494         0.152211        -2.08438
75.81                          0               0                0               0         0.177831        -3.90985         0.972398         86.1769
                               0               0                0               0         0.972462         86.1907         0.177835        -3.94153
                               0               0                0               0         0.146795        -4.02259        0.0269175        -88.6077
                               0               0                0               0        0.0269138        -88.6922         0.146697         -4.0176
75.855                         0               0                0               0         0.180327        -5.87368         0.973065         84.0935
                               0               0                0               0         0.973107         84.1049         0.180317        -5.90439
                               0               0                0               0         0.140957        -6.00044        0.0261629        -94.7673
                               0               0                0               0        0.0261589        -94.8404         0.140855        -5.99482
75.9                           0               0                0               0         0.183007        -7.87624          0.97381         81.9696
                               0               0                0               0         0.973818         81.9778         0.182977        -7.90708
                               0               0                0               0         0.134798        -8.01343        0.0255246        -101.431
                               0               0                0               0        0.0255209        -101.498         0.134692        -8.00721
75.945                         0               0                0               0         0.185862        -9.91956         0.974591         79.8093
                               0               0                0               0         0.974557         79.8135         0.185807        -9.95177
                               0               0                0               0         0.128329        -10.0508        0.0250248        -108.583
                               0               0                0               0        0.0250224        -108.649         0.128216        -10.0439
75.99                          0               0                0               0         0.188885        -12.0055         0.975363         77.6163
                               0               0                0               0         0.975284         77.6162         0.188802        -12.0404
                               0               0                0               0          0.12156        -12.0995        0.0246862        -116.186
                               0               0                0               0        0.0246858        -116.256         0.121439        -12.0917
76.035                         0               0                0               0          0.19207        -14.1355         0.976077          75.394
                               0               0                0               0         0.975952         75.3895         0.191959        -14.1744
                               0               0                0               0          0.11451        -14.1438        0.0245292        -124.176
                               0               0                0               0        0.0245316        -124.254         0.114382        -14.1346
76.08                          0               0                0               0         0.195413        -16.3104         0.976684          73.146
                               0               0                0               0         0.976518         73.1374         0.195275        -16.3545
                               0               0                0               0         0.107202        -16.1645        0.0245704        -132.463
                               0               0                0               0        0.0245759         -132.55         0.107066        -16.1533
76.125                         0               0                0               0         0.198909          -18.53         0.977135         70.8755
                               0               0                0               0         0.976935         70.8633          0.19875          -18.58
                               0               0                0               0        0.0996628        -18.1384        0.0248195        -140.937
                               0               0                0               0        0.0248279        -141.032        0.0995206        -18.1244
76.17                          0               0                0               0         0.202556        -20.7931         0.977382         68.5857
                               0               0                0               0         0.977159         68.5709         0.202385        -20.8492
                               0               0                0               0        0.0919246        -20.0365         0.025278        -149.477
                               0               0                0               0        0.0252885        -149.579        0.0917778        -20.0187
76.215                         0               0                0               0         0.206349        -23.0967         0.977382         66.2796
                               0               0                0               0          0.97715         66.2634         0.206179        -23.1578
                               0               0                0               0        0.0840241        -21.8222        0.0259381        -157.963
                               0               0                0               0        0.0259493        -158.069        0.0838753        -21.7993
76.26                          0               0                0               0         0.210281        -25.4361         0.977093         63.9602
                               0               0                0               0         0.976871         63.9442         0.210126        -25.4997
                               0               0                0               0        0.0760018        -23.4473        0.0267836        -166.291
                               0               0                0               0        0.0267934        -166.394        0.0758542        -23.4181
76.305                         0               0                0               0          0.21434        -27.8043         0.976483         61.6302
                               0               0                0               0         0.976291         61.6165         0.214214        -27.8662
                               0               0                0               0        0.0679018        -24.8462        0.0277911        -174.372
                               0               0                0               0        0.0277972        -174.464         0.067759        -24.8096
76.35                          0               0                0               0         0.218506        -30.1926         0.975523         59.2924
                               0               0                0               0         0.975384         59.2832          0.21842         -30.247
                               0               0                0               0        0.0597719        -25.9245        0.0289335         177.859
                               0               0                0               0        0.0289343         177.787        0.0596375        -25.8796
76.395                         0               0                0               0         0.222744         -32.591         0.974196         56.9491
                               0               0                0               0         0.974133         56.9472         0.222699         -32.631
                               0               0                0               0         0.051664        -26.5382        0.0301828         170.446
                               0               0                0               0        0.0301781         170.405        0.0515416         -26.485
76.44                          0               0                0               0         0.227001        -34.9898         0.972495         54.6027
                               0               0                0               0         0.972529         54.6114         0.226988        -35.0086
                               0               0                0               0        0.0436382        -26.4513        0.0315139         163.419
                               0               0                0               0        0.0315061         163.417        0.0435302        -26.3909
76.485                         0               0                0               0         0.231209        -37.3807         0.970426         52.2551
                               0               0                0               0         0.970573         52.2782         0.231204        -37.3738
                               0               0                0               0        0.0357709        -25.2428        0.0329078         156.788
                               0               0                0               0        0.0329031         156.833        0.0356782        -25.1788
76.53                          0               0                0               0         0.235282        -39.7596         0.968014         49.9082
                               0               0                0               0         0.968281         49.9502         0.235255         -39.726
                               0               0                0               0        0.0281798        -22.0854        0.0343545         150.552
                               0               0                0               0        0.0343623         150.644        0.0281004        -22.0241
76.575                         0               0                0               0          0.23913        -42.1269         0.965309         47.5636
                               0               0                0               0          0.96568         47.6297         0.239049        -42.0699
                               0               0                0               0        0.0210981        -15.1709        0.0358536         144.694
                               0               0                0               0        0.0358856         144.824        0.0210259        -15.1187
76.62                          0               0                0               0         0.242668        -44.4879         0.962393         45.2232
                               0               0                0               0         0.962817          45.319          0.24251        -44.4147
                               0               0                0               0        0.0151167       -0.339108        0.0374129         139.179
                               0               0                0               0          0.03748         139.329        0.0150409       -0.272783
76.665                         0               0                0               0          0.24583        -46.8513         0.959391         42.8901
                               0               0                0               0         0.959762          43.021         0.245587        -46.7707
                               0               0                0               0        0.0118129         28.5932        0.0390441         133.955
                               0               0                0               0        0.0391517         134.098        0.0117306         28.8323
76.71                          0               0                0               0         0.248575        -49.2265         0.956477         40.5702
                               0               0                0               0          0.95661         40.7393         0.248254        -49.1473
                               0               0                0               0        0.0131829         62.3192        0.0407543         128.951
                               0               0                0               0        0.0408992         129.061         0.013126         62.7934
76.755                         0               0                0               0         0.250886        -51.6212         0.953865         38.2758
                               0               0                0               0         0.953485         38.4799          0.25051        -51.5505
                               0               0                0               0        0.0181105         82.4834         0.042538         124.092
                               0               0                0               0        0.0427067          124.15         0.018102         82.9641
76.8                           0               0                0               0          0.25277        -54.0401         0.951729         36.0301
                               0               0                0               0         0.950524         36.2528         0.252365        -53.9825
                               0               0                0               0        0.0245084         92.0633        0.0443705          119.31
                               0               0                0               0        0.0445425          119.31        0.0245542         92.4653
76.845                         0               0                0               0         0.254245         -56.484         0.950027         33.8681
                               0               0                0               0         0.947835         34.0748          0.25384        -56.4419
                               0               0                0               0         0.031495         96.5542         0.046208         114.557
                               0               0                0               0        0.0463622          114.51        0.0315954         96.8593
76.89                          0               0                0               0         0.255339        -58.9506         0.948258         31.8247
                               0               0                0               0         0.945391         31.9701         0.254958        -58.9245
                               0               0                0               0        0.0387558         98.4587        0.0479948         109.815
                               0               0                0               0        0.0481155         109.739        0.0389007         98.6628
76.935                         0               0                0               0          0.25608         -61.435         0.945515         29.9057
                               0               0                0               0         0.942874         29.9648         0.255744         -61.424
                               0               0                0               0        0.0461282         98.8625         0.049675         105.093
                               0               0                0               0        0.0497558          105.01        0.0462942         98.9736
76.98                          0               0                0               0         0.256497        -63.9305         0.941065         28.0718
                               0               0                0               0         0.939636          28.069         0.256219        -63.9333
                               0               0                0               0        0.0534683          98.303        0.0512029         100.417
                               0               0                0               0        0.0512465         100.346        0.0536245         98.3433
77.025                         0               0                0               0         0.256618          -66.43         0.934893         26.2654
                               0               0                0               0            0.935         26.2591         0.256405        -66.4448
                               0               0                0               0        0.0606218         97.1061        0.0525492         95.8227
                               0               0                0               0        0.0525649         95.7763        0.0607415         97.1073
77.07                          0               0                0               0          0.25647         -68.926         0.927547         24.4494
                               0               0                0               0         0.928764         24.4858         0.256325        -68.9512
                               0               0                0               0        0.0674435         95.5112        0.0537027         91.3434
                               0               0                0               0         0.053702         91.3259        0.0675154         95.5039
77.115                         0               0                0               0         0.256077        -71.4114         0.919645         22.6149
                               0               0                0               0         0.921315         22.7066         0.255999        -71.4455
                               0               0                0               0        0.0738308         93.7055        0.0546661         87.0052
                               0               0                0               0        0.0546605         87.0155        0.0738614         93.7111
77.16                          0               0                0               0         0.255463        -73.8797         0.911609         20.7694
                               0               0                0               0         0.913266         20.9048         0.255449        -73.9213
                               0               0                0               0        0.0797423         91.8278        0.0554526         82.8253
                               0               0                0               0        0.0554507         82.8587        0.0797494         91.8548
77.205                         0               0                0               0         0.254653        -76.3251          0.90367          18.924