! TOUCHSTONE file generated by CST MICROWAVE STUDIO
! Date and time: Sun Jun 20 22:37:15 2021
! Project name: HIPS_d_sweep.cst
! Parameters = {fmax=120; fmin=75; b=0.46; d=19.65; a=0.63; phi=0; theta=0}
! Header version: 2018
! Port assignment regex: !\s*Touchstone port\s*([0-9]+)\s*=\s*(CST MWS port|CST DS port)\s*([0-9]+|Zmin|Zmax)\s*\(\"(.*)\"\)(\s*mode\s*([0-9]+))?.*
! Touchstone port assignment:
! Touchstone port 1 = CST MWS port Zmin ("") mode 1
! Touchstone port 2 = CST MWS port Zmin ("") mode 2
! Touchstone port 3 = CST MWS port Zmax ("") mode 1
! Touchstone port 4 = CST MWS port Zmax ("") mode 2
! S-Parameters are not renormalized. Unphysical impedance of 0 will be written to the file.
# GHz S MA R 0
75                             0               0                0               0         0.214424         153.441         0.971364         62.0471
                               0               0                0               0         0.971365         62.0539         0.214323          153.43
                               0               0                0               0        0.0753211        -16.7673        0.0678398        -13.9982
                               0               0                0               0        0.0678435        -14.0217        0.0753181        -16.6753
75.045                         0               0                0               0         0.217799         152.679         0.971093         61.3871
                               0               0                0               0         0.971079         61.3926         0.217701          152.67
                               0               0                0               0        0.0733003        -16.8908        0.0682044        -14.9815
                               0               0                0               0        0.0682114        -15.0178        0.0732993        -16.7957
75.09                          0               0                0               0         0.220893         151.877         0.970657         60.6568
                               0               0                0               0         0.970641         60.6619         0.220794         151.868
                               0               0                0               0        0.0710575        -17.0188        0.0684632        -16.0448
                               0               0                0               0        0.0684738        -16.0868        0.0710583          -16.92
75.135                         0               0                0               0         0.223684         151.027         0.970128         59.8569
                               0               0                0               0         0.970115         59.8622         0.223581         151.018
                               0               0                0               0        0.0685951        -17.1465        0.0686151        -17.1995
                               0               0                0               0        0.0686284        -17.2409        0.0685975        -17.0434
75.18                          0               0                0               0         0.226154         150.124         0.969566         58.9882
                               0               0                0               0         0.969562         58.9943         0.226044         150.115
                               0               0                0               0        0.0659159        -17.2661        0.0686607        -18.4557
                               0               0                0               0         0.068675        -18.4914        0.0659197        -17.1582
75.225                         0               0                0               0         0.228289         149.163         0.969027         58.0525
                               0               0                0               0         0.969032         58.0596         0.228171         149.151
                               0               0                0               0        0.0630228        -17.3666        0.0686022        -19.8225
                               0               0                0               0        0.0686152        -19.8486        0.0630281        -17.2533
75.27                          0               0                0               0          0.23008         148.137         0.968555         57.0516
                               0               0                0               0         0.968571         57.0599         0.229954         148.123
                               0               0                0               0        0.0599195         -17.432        0.0684424         -21.307
                               0               0                0               0        0.0684521        -21.3211        0.0599263        -17.3127
75.315                         0               0                0               0         0.231525         147.045         0.968185         55.9877
                               0               0                0               0         0.968211         55.9971         0.231391         147.028
                               0               0                0               0        0.0566101        -17.4402         0.068185        -22.9151
                               0               0                0               0        0.0681897        -22.9157        0.0566186        -17.3142
75.36                          0               0                0               0         0.232624         145.882         0.967945          54.863
                               0               0                0               0         0.967978         54.8735         0.232483         145.863
                               0               0                0               0           0.0531        -17.3605        0.0678335        -24.6507
                               0               0                0               0        0.0678323        -24.6376        0.0531104        -17.2269
75.405                         0               0                0               0         0.233383         144.649         0.967852         53.6802
                               0               0                0               0         0.967892         53.6915         0.233236         144.626
                               0               0                0               0        0.0493961        -17.1493        0.0673913        -26.5164
                               0               0                0               0        0.0673841          -26.49        0.0494088        -17.0071
75.45                          0               0                0               0         0.233808         143.344         0.967916         52.4418
                               0               0                0               0         0.967961         52.4534         0.233658         143.318
                               0               0                0               0         0.045508        -16.7441        0.0668612        -28.5132
                               0               0                0               0        0.0668489        -28.4746        0.0455235        -16.5919
75.495                         0               0                0               0         0.233911          141.97         0.968138         51.1504
                               0               0                0               0         0.968187         51.1618         0.233759         141.941
                               0               0                0               0        0.0414495         -16.053        0.0662455        -30.6406
                               0               0                0               0        0.0662297        -30.5913        0.0414685        -15.8889
75.54                          0               0                0               0         0.233705         140.528         0.968515         49.8084
                               0               0                0               0         0.968568         49.8192         0.233552         140.497
                               0               0                0               0        0.0372412        -14.9362        0.0655457        -32.8971
                               0               0                0               0        0.0655287        -32.8388        0.0372644        -14.7581
75.585                         0               0                0               0         0.233203         139.022         0.969034         48.4186
                               0               0                0               0         0.969091         48.4282         0.233051          138.99
                               0               0                0               0        0.0329151         -13.174        0.0647629        -35.2798
                               0               0                0               0        0.0647474        -35.2144        0.0329437        -12.9789
75.63                          0               0                0               0         0.232421         137.456          0.96968         46.9833
                               0               0                0               0          0.96974         46.9912         0.232271         137.423
                               0               0                0               0        0.0285243        -10.4059        0.0638977        -37.7851
                               0               0                0               0        0.0638865        -37.7143        0.0285599        -10.1902
75.675                         0               0                0               0         0.231375         135.835          0.97043          45.505
                               0               0                0               0         0.970495         45.5107         0.231228         135.803
                               0               0                0               0        0.0241618         -6.0157        0.0629503        -40.4084
                               0               0                0               0        0.0629463         -40.334        0.0242069        -5.77671
75.72                          0               0                0               0          0.23008         134.166          0.97126         43.9859
                               0               0                0               0          0.97133         43.9891         0.229938         134.134
                               0               0                0               0         0.020003         1.07052        0.0619211        -43.1443
                               0               0                0               0        0.0619268         -43.068         0.020061         1.33035
75.765                         0               0                0               0         0.228553         132.454         0.972139         42.4283
                               0               0                0               0         0.972217         42.4286         0.228417         132.424
                               0               0                0               0        0.0163956         12.6084        0.0608109        -45.9869
                               0               0                0               0        0.0608279        -45.9101        0.0164705         12.8653
75.81                          0               0                0               0         0.226812         130.707         0.973036         40.8344
                               0               0                0               0         0.973123         40.8316         0.226682         130.679
                               0               0                0               0        0.0139967         30.4509        0.0596207        -48.9296
                               0               0                0               0        0.0596501        -48.8538        0.0140895         30.6298
75.855                         0               0                0               0         0.224874          128.93         0.973917         39.2062
                               0               0                0               0         0.974013         39.2002         0.224751         128.905
                               0               0                0               0          0.01368         52.9895        0.0583525        -51.9657
                               0               0                0               0        0.0583943         -51.892        0.0137804              53
75.9                           0               0                0               0         0.222755         127.131         0.974748         37.5456
                               0               0                0               0         0.974853         37.5367         0.222639         127.109
                               0               0                0               0        0.0157424         73.2155         0.057009        -55.0878
                               0               0                0               0        0.0570622        -55.0174         0.015835         73.0921
75.945                         0               0                0               0         0.220472         125.317         0.975491         35.8545
                               0               0                0               0         0.975606          35.843         0.220365         125.298
                               0               0                0               0        0.0195617         86.9518        0.0555943        -58.2888
                               0               0                0               0        0.0556565        -58.2225        0.0196411         86.7873
75.99                          0               0                0               0         0.218044         123.493         0.976111         34.1346
                               0               0                0               0         0.976235         34.1212         0.217945         123.479
                               0               0                0               0        0.0244052         95.2694        0.0541134        -61.5614
                               0               0                0               0        0.0541811           -61.5        0.0244733         95.1087
76.035                         0               0                0               0         0.215487         121.668         0.976574         32.3875
                               0               0                0               0         0.976702         32.3731         0.215396         121.658
                               0               0                0               0        0.0298285         100.153        0.0525724        -64.8986
                               0               0                0               0         0.052641        -64.8425        0.0298884         100.007
76.08                          0               0                0               0         0.212818         119.846         0.976848         30.6145
                               0               0                0               0         0.976974         30.6006         0.212736          119.84
                               0               0                0               0        0.0355956         102.939        0.0509787        -68.2936
                               0               0                0               0        0.0510424        -68.2434        0.0356499         102.808
76.125                         0               0                0               0         0.210054         118.034         0.976906         28.8168
                               0               0                0               0         0.977017         28.8052         0.209981         118.033
                               0               0                0               0         0.041574         104.403        0.0493404        -71.7405
                               0               0                0               0        0.0493923        -71.6964        0.0416242         104.285
76.17                          0               0                0               0         0.207211         116.236         0.976725         26.9954
                               0               0                0               0         0.976803         26.9884         0.207148          116.24
                               0               0                0               0        0.0476802         104.996        0.0476666        -75.2337
                               0               0                0               0        0.0476989         -75.196        0.0477274         104.888
76.215                         0               0                0               0         0.204306         114.458         0.976293         25.1508
                               0               0                0               0         0.976307         25.1513         0.204253         114.466
                               0               0                0               0        0.0538552         104.991        0.0459668        -78.7689
                               0               0                0               0        0.0459709        -78.7378           0.0539          104.89
76.26                          0               0                0               0         0.201354         112.704         0.975609         23.2833
                               0               0                0               0         0.975512         23.2948          0.20131         112.716
                               0               0                0               0        0.0600531         104.559        0.0442508        -82.3423
                               0               0                0               0        0.0442176        -82.3187        0.0600958         104.464
76.305                         0               0                0               0         0.198369         110.978         0.974694         21.3926
                               0               0                0               0         0.974412         21.4192         0.198335         110.994
                               0               0                0               0        0.0662358         103.816        0.0425287        -85.9516
                               0               0                0               0        0.0424484        -85.9367        0.0662764         103.724
76.35                          0               0                0               0         0.195366         109.283         0.973592         19.4784
                               0               0                0               0         0.973015         19.5245         0.195341         109.303
                               0               0                0               0        0.0723703         102.839        0.0408102        -89.5954
                               0               0                0               0        0.0406728        -89.5916        0.0724085          102.75
76.395                         0               0                0               0         0.192359         107.623         0.972386         17.5403
                               0               0                0               0          0.97135         17.6099         0.192343         107.645
                               0               0                0               0        0.0784273         101.687        0.0391049        -93.2734
                               0               0                0               0           0.0389        -93.2848        0.0784627         101.599
76.44                          0               0                0               0         0.189358         105.999         0.971211         15.5792
                               0               0                0               0         0.969478         15.6741         0.189351         106.024
                               0               0                0               0         0.084381           100.4        0.0374218        -96.9868
                               0               0                0               0         0.037139        -97.0197        0.0844131         100.313
76.485                         0               0                0               0         0.186376         104.414          0.97026         13.5985
                               0               0                0               0         0.967507         13.7156         0.186378         104.442
                               0               0                0               0        0.0902085         99.0121        0.0357693        -100.737
                               0               0                0               0        0.0353983        -100.802        0.0902366         98.9255
76.53                          0               0                0               0         0.183425          102.87         0.969778          11.607
                               0               0                0               0         0.965608         11.7338         0.183435           102.9
                               0               0                0               0        0.0958899         97.5472        0.0341552        -104.528
                               0               0                0               0        0.0336857        -104.639        0.0959132         97.4606
76.575                         0               0                0               0         0.180512         101.368         0.970022         9.62288
                               0               0                0               0          0.96404         9.73063         0.180531           101.4
                               0               0                0               0         0.101408         96.0255        0.0325862        -108.363
                               0               0                0               0        0.0320087        -108.542         0.101426         95.9387
76.62                          0               0                0               0         0.177648         99.9094          0.97115          7.6757
                               0               0                0               0         0.963151         7.71545         0.177675         99.9421
                               0               0                0               0         0.106749         94.4632        0.0310685        -112.246
                               0               0                0               0        0.0303742        -112.525          0.10676         94.3761
76.665                         0               0                0               0         0.174841         98.4944         0.973053          5.8032
                               0               0                0               0         0.963327         5.71061         0.174874         98.5278
                               0               0                0               0         0.111902         92.8734        0.0296073        -116.182
                               0               0                0               0        0.0287888        -116.603         0.111906         92.7861
76.71                          0               0                0               0         0.172097         97.1236         0.975248         4.03878
                               0               0                0               0         0.964831         3.75698         0.172138         97.1574
                               0               0                0               0         0.116857          91.267        0.0282069        -120.175
                               0               0                0               0        0.0272592        -120.798         0.116853         91.1795
76.755                         0               0                0               0         0.169424         95.7973         0.976963         2.39452
                               0               0                0               0         0.967516         1.90997         0.169471         95.8309
                               0               0                0               0         0.121609         89.6528        0.0268706         -124.23
                               0               0                0               0        0.0257921        -125.133         0.121596         89.5653
76.8                           0               0                0               0         0.166828         94.5154         0.977469         0.85385
                               0               0                0               0         0.970602        0.217626         0.166881         94.5484
                               0               0                0               0         0.126155         88.0383        0.0256008         -128.35
                               0               0                0               0        0.0243951        -129.637         0.126132          87.951
76.845                         0               0                0               0         0.164314         93.2775          0.97638       -0.618306
                               0               0                0               0         0.972866        -1.31054         0.164372         93.3095
                               0               0                0               0         0.130492         86.4294        0.0243987        -132.537
                               0               0                0               0        0.0230771        -134.339          0.13046         86.3426
76.89                          0               0                0               0         0.161887         92.0831         0.973722        -2.05757
                               0               0                0               0         0.973271        -2.71301         0.161949         92.1137
                               0               0                0               0         0.134622         84.8312         0.023264        -136.792
                               0               0                0               0        0.0218486        -139.274         0.134579          84.745
76.935                         0               0                0               0          0.15955         90.9314         0.969776        -3.48852
                               0               0                0               0         0.971466        -4.05099         0.159616         90.9602
                               0               0                0               0         0.138547         83.2474        0.0221949        -141.111
                               0               0                0               0        0.0207226        -144.469         0.138493         83.1622
76.98                          0               0                0               0         0.157309         89.8214         0.964896        -4.92299
                               0               0                0               0         0.967737        -5.37553         0.157378         89.8482
                               0               0                0               0          0.14227         81.6814        0.0211869        -145.492
                               0               0                0               0        0.0197142        -149.947         0.142206         81.5974
77.025                         0               0                0               0         0.155167          88.752         0.959397        -6.36372
                               0               0                0               0         0.962641        -6.71395         0.155239         88.7765
                               0               0                0               0         0.145797         80.1355        0.0202323        -149.931
                               0               0                0               0        0.0188408         -155.71         0.145722         80.0531
77.07                          0               0                0               0         0.153126         87.7218         0.953523        -7.80859
                               0               0                0               0         0.956707        -8.07397           0.1532         87.7437
                               0               0                0               0         0.149134         78.6114        0.0193186        -154.425
                               0               0                0               0          0.01812        -161.733         0.149048          78.531
77.115                         0               0                0               0         0.151191         86.7292         0.947447        -9.25359
                               0               0                0               0         0.950333        -9.45271         0.151266         86.7482
                               0               0                0               0         0.152288         77.1107        0.0184265        -158.987
                               0               0                0               0        0.0175671        -167.951         0.152192         77.0324
77.16                          0               0                0               0         0.149362         85.7724         0.941286        -10.6945
                               0               0                0               0          0.94378        -10.8434         0.149438         85.7884
                               0               0                0               0         0.155266         75.6339         0.017527        -163.662
                               0               0                0               0        0.0171912        -174.259         0.155159         75.5581
77.205                         0               0                0               0         0.147644         84.8492         0.935124        -12.1276