! TOUCHSTONE file generated by CST MICROWAVE STUDIO
! Date and time: Sun Jun 20 22:37:33 2021
! Project name: HIPS_d_sweep.cst
! Parameters = {fmax=120; fmin=75; b=0.46; d=21.6; a=0.63; phi=0; theta=0}
! Header version: 2018
! Port assignment regex: !\s*Touchstone port\s*([0-9]+)\s*=\s*(CST MWS port|CST DS port)\s*([0-9]+|Zmin|Zmax)\s*\(\"(.*)\"\)(\s*mode\s*([0-9]+))?.*
! Touchstone port assignment:
! Touchstone port 1 = CST MWS port Zmin ("") mode 1
! Touchstone port 2 = CST MWS port Zmin ("") mode 2
! Touchstone port 3 = CST MWS port Zmax ("") mode 1
! Touchstone port 4 = CST MWS port Zmax ("") mode 2
! S-Parameters are not renormalized. Unphysical impedance of 0 will be written to the file.
# GHz S MA R 0
75                             0               0                0               0         0.072571        -70.9599         0.993325        -160.094
                               0               0                0               0         0.993468        -160.113        0.0726325         -70.889
                               0               0                0               0        0.0875501         109.216        0.0133939        -98.2134
                               0               0                0               0        0.0133803         -98.175        0.0875225         109.173
75.045                         0               0                0               0        0.0762156        -71.5205         0.992892        -160.815
                               0               0                0               0         0.992981        -160.833        0.0763723        -71.6133
                               0               0                0               0        0.0895158         108.469        0.0138847        -100.114
                               0               0                0               0        0.0138623        -100.102         0.089486         108.427
75.09                          0               0                0               0        0.0795897        -72.3519         0.992396         -161.61
                               0               0                0               0         0.992512        -161.628        0.0797207         -72.403
                               0               0                0               0        0.0917456         107.656        0.0142488        -102.345
                               0               0                0               0        0.0142255        -102.332        0.0917155         107.615
75.135                         0               0                0               0          0.08261        -73.3312         0.991869         -162.48
                               0               0                0               0         0.992052        -162.497        0.0826603        -73.2604
                               0               0                0               0        0.0942374         106.781        0.0144932        -104.896
                               0               0                0               0        0.0144726        -104.873        0.0942079         106.741
75.18                          0               0                0               0        0.0852291        -74.3778         0.991336        -163.422
                               0               0                0               0          0.99159        -163.438         0.085182        -74.1868
                               0               0                0               0        0.0969867         105.845        0.0146263        -107.771
                               0               0                0               0        0.0146085        -107.739        0.0969579         105.807
75.225                         0               0                0               0        0.0874174         -75.447         0.990814        -164.436
                               0               0                0               0         0.991122        -164.451        0.0872846        -75.1824
                               0               0                0               0         0.099986         104.851        0.0146571        -110.987
                               0               0                0               0        0.0146406        -110.952        0.0999578         104.814
75.27                          0               0                0               0        0.0891562        -76.5217         0.990312         -165.52
                               0               0                0               0         0.990644        -165.533        0.0889732         -76.246
                               0               0                0               0         0.103226         103.799        0.0145962        -114.569
                               0               0                0               0        0.0145785        -114.541         0.103198         103.763
75.315                         0               0                0               0         0.090437        -77.6059         0.989832        -166.672
                               0               0                0               0         0.990155        -166.684        0.0902586        -77.3756
                               0               0                0               0         0.106694         102.689        0.0144555        -118.551
                               0               0                0               0        0.0144342         -118.54         0.106665         102.653
75.36                          0               0                0               0        0.0912663         -78.718          0.98937        -167.891
                               0               0                0               0         0.989656        -167.902        0.0911557        -78.5678
                               0               0                0               0         0.110377          101.52        0.0142489        -122.974
                               0               0                0               0        0.0142223        -122.986         0.110347         101.486
75.405                         0               0                0               0        0.0916715         -79.884         0.988919        -169.174
                               0               0                0               0         0.989151        -169.184        0.0916824        -79.8185
                               0               0                0               0         0.114257         100.294        0.0139926        -127.882
                               0               0                0               0        0.0139601        -127.922         0.114226          100.26
75.45                          0               0                0               0        0.0917048        -81.1283         0.988467         -170.52
                               0               0                0               0         0.988641        -170.528        0.0918586        -81.1227
                               0               0                0               0         0.118317         99.0098        0.0137052        -133.318
                               0               0                0               0        0.0136676         -133.39         0.118284         98.9766
75.495                         0               0                0               0        0.0914387        -82.4632         0.988001        -171.925
                               0               0                0               0         0.988131        -171.933        0.0917048         -82.475
                               0               0                0               0         0.122537         97.6679        0.0134087        -139.323
                               0               0                0               0        0.0133679        -139.425         0.122504         97.6355
75.54                          0               0                0               0        0.0909507        -83.8794         0.987508        -173.388
                               0               0                0               0         0.987624        -173.395        0.0912419        -83.8693
                               0               0                0               0         0.126896         96.2693        0.0131276        -145.923
                               0               0                0               0        0.0130866         -146.05         0.126863          96.238
75.585                         0               0                0               0        0.0902965        -85.3443         0.986978        -174.905
                               0               0                0               0         0.987122         -174.91        0.0904903        -85.2996
                               0               0                0               0         0.131372         94.8155        0.0128893        -153.121
                               0               0                0               0        0.0128516        -153.262          0.13134         94.7853
75.63                          0               0                0               0        0.0894874        -86.8128         0.986402        -176.473
                               0               0                0               0         0.986625        -176.477        0.0894695        -86.7597
                               0               0                0               0         0.135942         93.3084        0.0127222        -160.882
                               0               0                0               0        0.0126914         -161.02         0.135913         93.2795
75.675                         0               0                0               0         0.088487        -88.2486         0.985779        -178.089
                               0               0                0               0         0.986135        -178.092        0.0881979        -88.2437
                               0               0                0               0         0.140584         91.7506        0.0126543        -169.123
                               0               0                0               0         0.012633         -169.24         0.140558          91.723
75.72                          0               0                0               0        0.0872366        -89.6412         0.985111        -179.749
                               0               0                0               0         0.985648         -179.75         0.086693        -89.7462
                               0               0                0               0         0.145275         90.1449        0.0127099        -177.711
                               0               0                0               0        0.0126998        -177.786         0.145254         90.1188
75.765                         0               0                0               0        0.0856904        -91.0074          0.98441         178.551
                               0               0                0               0          0.98516         178.551        0.0849711        -91.2622
                               0               0                0               0         0.149993         88.4947        0.0129068          173.53
                               0               0                0               0        0.0129083         173.513         0.149977         88.4701
75.81                          0               0                0               0        0.0838369        -92.3788         0.983688         176.814
                               0               0                0               0         0.984666         176.815        0.0830485        -92.7877
                               0               0                0               0         0.154716         86.8036        0.0132542         164.794
                               0               0                0               0        0.0132662         164.843         0.154706         86.7803
75.855                         0               0                0               0        0.0817001        -93.7865         0.982965         175.044
                               0               0                0               0          0.98416         175.046        0.0809414        -94.3196
                               0               0                0               0         0.159424         85.0754        0.0137517         156.262
                               0               0                0               0        0.0137722         156.375         0.159418         85.0534
75.9                           0               0                0               0        0.0793261        -95.2511         0.982261         173.244
                               0               0                0               0         0.983632         173.247        0.0786665        -95.8554
                               0               0                0               0         0.164095         83.3139        0.0143903         148.082
                               0               0                0               0        0.0144165         148.244         0.164093          83.293
75.945                         0               0                0               0        0.0767686        -96.7799         0.981595         171.418
                               0               0                0               0         0.983076         171.422        0.0762423        -97.3936
                               0               0                0               0          0.16871          81.523        0.0151544         140.348
                               0               0                0               0        0.0151834         140.538         0.168711         81.5031
75.99                          0               0                0               0        0.0740786        -98.3683         0.980983         169.569
                               0               0                0               0         0.982484         169.575         0.073689        -98.9328
                               0               0                0               0         0.173251         79.7064         0.016025         133.108
                               0               0                0               0        0.0160537         133.299         0.173252         79.6873
76.035                         0               0                0               0        0.0713002        -100.003         0.980433         167.701
                               0               0                0               0         0.981852         167.708         0.071029        -100.471
                               0               0                0               0         0.177696         77.8679        0.0169815         126.369
                               0               0                0               0        0.0170067         126.533         0.177696         77.8493
76.08                          0               0                0               0        0.0684686        -101.664         0.979947         165.817
                               0               0                0               0         0.981177         165.824        0.0682866        -102.006
                               0               0                0               0         0.182028         76.0109        0.0180044         120.111
                               0               0                0               0        0.0180223         120.222         0.182024         75.9926
76.125                         0               0                0               0        0.0656117        -103.327         0.979518          163.92
                               0               0                0               0         0.980464         163.927        0.0654875         -103.53
                               0               0                0               0         0.186226         74.1384        0.0190755         114.295
                               0               0                0               0        0.0190822         114.334         0.186216         74.1203
76.17                          0               0                0               0        0.0627515        -104.967         0.979129         162.014
                               0               0                0               0         0.979724          162.02        0.0626579        -105.037
                               0               0                0               0         0.190269         72.2534        0.0201789         108.878
                               0               0                0               0        0.0201704         108.834         0.190253         72.2354
76.215                         0               0                0               0        0.0599058        -106.557         0.978754         160.103
                               0               0                0               0         0.978976         160.105         0.059823        -106.513
                               0               0                0               0         0.194138         70.3586        0.0213012         103.812
                               0               0                0               0        0.0212738         103.684         0.194115         70.3407
76.26                          0               0                0               0        0.0570894        -108.069         0.978361         158.189
                               0               0                0               0          0.97825         158.186         0.057006        -107.941
                               0               0                0               0         0.197811         68.4563        0.0224307         99.0498
                               0               0                0               0        0.0223825         98.8529         0.197783         68.4386
76.305                         0               0                0               0        0.0543159        -109.475         0.977916         156.275
                               0               0                0               0         0.977581         156.267        0.0542274          -109.3
                               0               0                0               0         0.201268          66.549        0.0235573         94.5488
                               0               0                0               0        0.0234899         94.3113         0.201238         66.5315
76.35                          0               0                0               0        0.0515977        -110.749         0.977386         154.364
                               0               0                0               0         0.977008         154.353        0.0515045        -110.569
                               0               0                0               0         0.204492         64.6387        0.0246719         90.2696
                               0               0                0               0        0.0245924          90.037         0.204461         64.6218
76.395                         0               0                0               0        0.0489469        -111.872         0.976747         152.459
                               0               0                0               0         0.976555          152.45        0.0488512        -111.726
                               0               0                0               0         0.207467         62.7281        0.0257656         86.1787
                               0               0                0               0         0.025689         86.0134          0.20744         62.7118
76.44                          0               0                0               0        0.0463745        -112.834         0.975994         150.562
                               0               0                0               0         0.976215         150.565        0.0462781        -112.755
                               0               0                0               0         0.210182         60.8199        0.0268286         82.2504
                               0               0                0               0        0.0267794         82.2289         0.210163         60.8043
76.485                         0               0                0               0        0.0438884        -113.645         0.975157         148.676
                               0               0                0               0         0.975922         148.703        0.0437922        -113.654
                               0               0                0               0         0.212638         58.9177        0.0278495         78.4699
                               0               0                0               0         0.027861         78.6761          0.21263         58.9027
76.53                          0               0                0               0        0.0414913        -114.357         0.974326         146.801
                               0               0                0               0         0.975555         146.862        0.0413956        -114.453
                               0               0                0               0         0.214848         57.0261        0.0288134         74.8395
                               0               0                0               0         0.028922         75.3476         0.214853         57.0112
76.575                         0               0                0               0        0.0391754        -115.084         0.973686         144.939
                               0               0                0               0         0.974986         145.032        0.0390833        -115.232
                               0               0                0               0         0.216848         55.1513           0.0297         71.3934
                               0               0                0               0        0.0299279         72.2284         0.216864         55.1357
76.62                          0               0                0               0         0.036925        -116.022         0.973539         143.093
                               0               0                0               0         0.974284          143.18        0.0368445        -116.148
                               0               0                0               0         0.218703         53.3016        0.0304914         68.2294
                               0               0                0               0        0.0307741         69.2459         0.218724          53.284
76.665                         0               0                0               0        0.0347366        -117.383         0.974211         141.266
                               0               0                0               0         0.974208         141.275         0.034675        -117.399
                               0               0                0               0         0.220494         51.4849        0.0312397         65.5265
                               0               0                0               0        0.0313885         65.5158         0.220511         51.4642
76.71                          0               0                0               0        0.0326548        -119.118         0.975651         139.462
                               0               0                0               0         0.975909         139.379        0.0326058         -119.01
                               0               0                0               0         0.222231         49.7007        0.0321703         63.1319
                               0               0                0               0        0.0327813         62.3888         0.222236         49.6776
76.755                         0               0                0               0        0.0307478        -120.588         0.976863         137.682
                               0               0                0               0         0.977556         137.613         0.030695        -120.461
                               0               0                0               0         0.223704         47.9293        0.0331244         60.3165
                               0               0                0               0        0.0334833         59.8926         0.223707         47.9065
76.8                           0               0                0               0        0.0290379        -120.889         0.976306          135.92
                               0               0                0               0         0.976597         135.904        0.0289728        -120.825
                               0               0                0               0         0.224547         46.1426        0.0337013         57.3274
                               0               0                0               0        0.0338985         57.1967         0.224558         46.1217
76.845                         0               0                0               0        0.0275487        -119.663         0.973412         134.169
                               0               0                0               0         0.973382         134.175        0.0274736        -119.628
                               0               0                0               0         0.224601          44.339        0.0339648         54.4955
                               0               0                0               0        0.0341205         54.4639         0.224618         44.3192
76.89                          0               0                0               0        0.0263456        -117.204         0.968838         132.431
                               0               0                0               0         0.968804         132.437        0.0262685        -117.142
                               0               0                0               0         0.224023         42.5426        0.0340343         51.8192
                               0               0                0               0        0.0341848         51.7793         0.224038         42.5231
76.935                         0               0                0               0        0.0254789        -114.004         0.963444         130.712
                               0               0                0               0         0.963479         130.712        0.0254059        -113.898
                               0               0                0               0         0.223032         40.7754        0.0339792          49.266
                               0               0                0               0         0.034128         49.1948         0.223045         40.7562
76.98                          0               0                0               0        0.0249582        -110.478         0.957757         129.015
                               0               0                0               0         0.957809         129.011        0.0248899        -110.335
                               0               0                0               0         0.221772         39.0483        0.0338412         46.8297
                               0               0                0               0         0.033984         46.7386         0.221782         39.0295
77.025                         0               0                0               0        0.0247648        -106.925         0.952007         127.341
                               0               0                0               0          0.95203         127.338        0.0246995        -106.753
                               0               0                0               0         0.220309         37.3651        0.0336463         44.5171
                               0               0                0               0        0.0337801         44.4223         0.220319         37.3467
77.07                          0               0                0               0        0.0248667        -103.552         0.946279         125.689
                               0               0                0               0         0.946263         125.689        0.0248035        -103.354
                               0               0                0               0         0.218675         35.7268        0.0334113         42.3359
                               0               0                0               0        0.0335357         42.2464         0.218685         35.7087
77.115                         0               0                0               0        0.0252259          -100.5         0.940602         124.061
                               0               0                0               0         0.940558         124.064        0.0251658        -100.275
                               0               0                0               0         0.216889         34.1334        0.0331475         40.2901
                               0               0                0               0        0.0332636         40.2064         0.216899         34.1155
77.16                          0               0                0               0        0.0258023        -97.8538         0.934988         122.456
                               0               0                0               0         0.934933          122.46        0.0257478        -97.6045
                               0               0                0               0         0.214965         32.5846        0.0328634         38.3792
                               0               0                0               0        0.0329724         38.2961         0.214975         32.5669
77.205                         0               0                0               0        0.0265562        -95.6554         0.929445         120.874