! TOUCHSTONE file generated by CST MICROWAVE STUDIO
! Date and time: Sun Jun 20 22:37:58 2021
! Project name: HIPS_d_sweep.cst
! Parameters = {fmax=120; fmin=75; b=0.46; d=23.9; a=0.63; phi=0; theta=0}
! Header version: 2018
! Port assignment regex: !\s*Touchstone port\s*([0-9]+)\s*=\s*(CST MWS port|CST DS port)\s*([0-9]+|Zmin|Zmax)\s*\(\"(.*)\"\)(\s*mode\s*([0-9]+))?.*
! Touchstone port assignment:
! Touchstone port 1 = CST MWS port Zmin ("") mode 1
! Touchstone port 2 = CST MWS port Zmin ("") mode 2
! Touchstone port 3 = CST MWS port Zmax ("") mode 1
! Touchstone port 4 = CST MWS port Zmax ("") mode 2
! S-Parameters are not renormalized. Unphysical impedance of 0 will be written to the file.
# GHz S MA R 0
75                             0               0                0               0         0.081986         -155.13         0.972045        -60.1363
                               0               0                0               0         0.971921        -60.1413        0.0818534        -155.068
                               0               0                0               0         0.217156         29.1205         0.036646       -0.169591
                               0               0                0               0        0.0365016      -0.0786626         0.217124          29.125
75.045                         0               0                0               0        0.0778946        -156.329         0.972784        -60.9056
                               0               0                0               0         0.972655        -60.9125        0.0777838        -156.233
                               0               0                0               0         0.216344         28.3821        0.0361886        0.415773
                               0               0                0               0        0.0360304        0.534463         0.216312         28.3869
75.09                          0               0                0               0        0.0742241        -157.436         0.973332        -61.7527
                               0               0                0               0         0.973203          -61.76        0.0741107        -157.329
                               0               0                0               0         0.215393         27.5655        0.0357391        0.808774
                               0               0                0               0        0.0355812         0.94263         0.215362         27.5703
75.135                         0               0                0               0        0.0709631         -158.49         0.973745        -62.6776
                               0               0                0               0          0.97362        -62.6843        0.0708337        -158.391
                               0               0                0               0         0.214305           26.67        0.0353037         1.00756
                               0               0                0               0        0.0351572         1.14507         0.214275         26.6748
75.18                          0               0                0               0        0.0681005        -159.526         0.974077          -63.68
                               0               0                0               0         0.973955        -63.6856        0.0679509        -159.451
                               0               0                0               0          0.21308         25.6954        0.0348853         1.01003
                               0               0                0               0        0.0347582         1.14059         0.213052         25.7001
75.225                         0               0                0               0         0.065627        -160.577         0.974373        -64.7593
                               0               0                0               0         0.974251        -64.7634        0.0654596        -160.537
                               0               0                0               0         0.211716         24.6419        0.0344842        0.813696
                               0               0                0               0        0.0343814        0.927742         0.211689         24.6466
75.27                          0               0                0               0        0.0635349        -161.669         0.974669        -65.9141
                               0               0                0               0         0.974545        -65.9168        0.0633566        -161.669
                               0               0                0               0         0.210207         23.5102        0.0340981        0.415734
                               0               0                0               0        0.0340213        0.505153         0.210182         23.5147
75.315                         0               0                0               0        0.0618186        -162.822         0.974997        -67.1431
                               0               0                0               0         0.974866        -67.1447        0.0616386        -162.863
                               0               0                0               0         0.208545         22.3009        0.0337227        -0.18679
                               0               0                0               0        0.0336707       -0.128047         0.208521         22.3053
75.36                          0               0                0               0        0.0604737        -164.049         0.975377        -68.4445
                               0               0                0               0         0.975236        -68.4453        0.0603015        -164.127
                               0               0                0               0         0.206719         21.0154        0.0333512       -0.996539
                               0               0                0               0        0.0333205       -0.971777         0.206697         21.0196
75.405                         0               0                0               0        0.0594961        -165.356         0.975824        -69.8162
                               0               0                0               0         0.975671         -69.817        0.0593399         -165.46
                               0               0                0               0         0.204717         19.6551        0.0329756        -2.01546
                               0               0                0               0         0.032961        -2.02463         0.204696         19.6591
75.45                          0               0                0               0        0.0588814        -166.738         0.976343        -71.2561
                               0               0                0               0         0.976178        -71.2573        0.0587465        -166.857
                               0               0                0               0         0.202525         18.2217        0.0325864        -3.24436
                               0               0                0               0        0.0325814        -3.28367         0.202506         18.2257
75.495                         0               0                0               0        0.0586237        -168.186         0.976933        -72.7619
                               0               0                0               0         0.976757        -72.7641        0.0585117        -168.307
                               0               0                0               0         0.200127         16.7177        0.0321731        -4.68253
                               0               0                0               0        0.0321714        -4.74434         0.200109         16.7216
75.54                          0               0                0               0        0.0587144        -169.686         0.977588         -74.331
                               0               0                0               0         0.977403        -74.3348        0.0586233        -169.795
                               0               0                0               0         0.197508         15.1455        0.0317254        -6.32756
                               0               0                0               0        0.0317207        -6.40073         0.197491         15.1495
75.585                         0               0                0               0        0.0591422        -171.222         0.978292         -75.961
                               0               0                0               0         0.978103        -75.9666        0.0590662        -171.306
                               0               0                0               0         0.194652         13.5082        0.0312328        -8.17539
                               0               0                0               0        0.0312205        -8.24595         0.194637         13.5124
75.63                          0               0                0               0        0.0598925        -172.776         0.979028        -77.6491
                               0               0                0               0          0.97884        -77.6566        0.0598234        -172.829
                               0               0                0               0         0.191545         11.8096        0.0306859        -10.2205
                               0               0                0               0        0.0306627        -10.2727          0.19153          11.814
75.675                         0               0                0               0        0.0609479        -174.335         0.979774        -79.3926
                               0               0                0               0         0.979595         -79.402        0.0608758        -174.353
                               0               0                0               0         0.188173         10.0535        0.0300765        -12.4566
                               0               0                0               0         0.030041        -12.4742         0.188159         10.0583
75.72                          0               0                0               0        0.0622887        -175.889         0.980506        -81.1887
                               0               0                0               0         0.980344        -81.1995        0.0622032        -175.872
                               0               0                0               0         0.184524         8.24451        0.0293982        -14.8774
                               0               0                0               0        0.0293507        -14.8447          0.18451         8.24978
75.765                         0               0                0               0        0.0638938        -177.433         0.981199        -83.0344
                               0               0                0               0         0.981064        -83.0461        0.0637849        -177.385
                               0               0                0               0          0.18059         6.38753        0.0286463        -17.4772
                               0               0                0               0        0.0285885        -17.3806         0.180577         6.39343
75.81                          0               0                0               0        0.0657413        -178.968          0.98183        -84.9268
                               0               0                0               0         0.981732        -84.9384        0.0656006        -178.895
                               0               0                0               0         0.176366         4.48773         0.027818        -20.2527
                               0               0                0               0        0.0277522        -20.0814         0.176353          4.4944
75.855                         0               0                0               0        0.0678092         179.503          0.98238        -86.8626
                               0               0                0               0          0.98233        -86.8731        0.0676304         179.593
                               0               0                0               0         0.171849         2.55037         0.026912        -23.2036
                               0               0                0               0         0.026841        -22.9506         0.171837         2.55795
75.9                           0               0                0               0        0.0700765         177.971         0.982837        -88.8386
                               0               0                0               0         0.982844        -88.8468        0.0698556         178.068
                               0               0                0               0          0.16704        0.580636        0.0259289        -26.3341
                               0               0                0               0        0.0258548        -25.9966         0.167028        0.589239
75.945                         0               0                0               0        0.0725232         176.424         0.983198        -90.8514
                               0               0                0               0          0.98327        -90.8559        0.0722587         176.521
                               0               0                0               0         0.161945        -1.41667          0.02487        -29.6546
                               0               0                0               0        0.0247943        -29.2344         0.161934        -1.40694
75.99                          0               0                0               0        0.0751307         174.852         0.983475        -92.8971
                               0               0                0               0         0.983617        -92.8971        0.0748242         174.939
                               0               0                0               0          0.15657         -3.4374         0.023738        -33.1828
                               0               0                0               0         0.023661        -32.6871          0.15656        -3.42646
76.035                         0               0                0               0        0.0778826         173.239         0.983693         -94.972
                               0               0                0               0         0.983905        -94.9669        0.0775384         173.309
                               0               0                0               0         0.150926        -5.47838         0.022536        -36.9464
                               0               0                0               0        0.0224571         -36.388         0.150916        -5.46621
76.08                          0               0                0               0        0.0807646         171.571           0.9839        -97.0719
                               0               0                0               0         0.984175        -97.0617        0.0803907         171.618
                               0               0                0               0         0.145023        -7.53771        0.0212685        -40.9862
                               0               0                0               0         0.021186        -40.3846         0.145014        -7.52432
76.125                         0               0                0               0        0.0837664         169.833         0.984163        -99.1924
                               0               0                0               0         0.984482         -99.178        0.0833746         169.852
                               0               0                0               0         0.138874          -9.615        0.0199409        -45.3601
                               0               0                0               0         0.019853        -44.7432         0.138865        -9.60046
76.17                          0               0                0               0        0.0868832         168.009         0.984563        -101.329
                               0               0                0               0         0.984899        -101.312        0.0864908         167.996
                               0               0                0               0         0.132489        -11.7116        0.0185607        -50.1503
                               0               0                0               0        0.0184667        -49.5563         0.132482         -11.696
76.215                         0               0                0               0        0.0901212         166.083         0.985194        -103.477
                               0               0                0               0         0.985508        -103.461        0.0897524         166.039
                               0               0                0               0         0.125882        -13.8305        0.0171393        -55.4723
                               0               0                0               0        0.0170406        -54.9515         0.125875        -13.8141
76.26                          0               0                0               0        0.0935065         164.038         0.986142        -105.632
                               0               0                0               0         0.986388        -105.621        0.0931935         163.972
                               0               0                0               0         0.119064        -15.9764        0.0156936        -61.4889
                               0               0                0               0        0.0155966        -61.1036         0.119058        -15.9593
76.305                         0               0                0               0         0.097103         161.869         0.987467         -107.79
                               0               0                0               0         0.987597        -107.787        0.0968817         161.802
                               0               0                0               0         0.112049        -18.1547        0.0142507        -68.4259
                               0               0                0               0         0.014168        -68.2436         0.112044        -18.1372
76.35                          0               0                0               0         0.101035         159.596         0.989178        -109.949
                               0               0                0               0         0.989152        -109.957         0.100921         159.573
                               0               0                0               0         0.104854        -20.3706         0.012853        -76.5835
                               0               0                0               0        0.0128045        -76.6544         0.104851        -20.3528
76.395                         0               0                0               0         0.105473         157.323         0.991207        -112.105
                               0               0                0               0         0.991006        -112.125         0.105398         157.401
                               0               0                0               0        0.0975021        -22.6269        0.0115649        -86.3185
                               0               0                0               0        0.0115738        -86.6281        0.0975009        -22.6088
76.44                          0               0                0               0         0.110435         155.287         0.993402        -114.259
                               0               0                0               0         0.993033         -114.29         0.110192         155.464
                               0               0                0               0        0.0900198        -24.9204        0.0104753         -97.943
                               0               0                0               0        0.0105577        -98.3511        0.0900214        -24.9016
76.485                         0               0                0               0         0.115341         153.694         0.995534        -116.409
                               0               0                0               0         0.995036        -116.447         0.114788         153.842
                               0               0                0               0         0.082438        -27.2373       0.00968733        -111.484
                               0               0                0               0        0.0098353        -111.722        0.0824432        -27.2171
76.53                          0               0                0               0         0.119287         152.334         0.997335        -118.554
                               0               0                0               0         0.996765        -118.595         0.118616         152.337
                               0               0                0               0        0.0747864        -29.5479       0.00928245        -126.405
                               0               0                0               0       0.00945618         -126.23        0.0747953        -29.5253
76.575                         0               0                0               0         0.122176         150.761         0.998538        -120.692
                               0               0                0               0         0.997963        -120.731         0.121636         150.659
                               0               0                0               0         0.067089        -31.8025       0.00927483        -141.671
                               0               0                0               0       0.00942195         -141.09        0.0671013        -31.7757
76.62                          0               0                0               0         0.124538          148.82         0.998923        -122.821
                               0               0                0               0         0.998402        -122.854         0.124181         148.693
                               0               0                0               0        0.0593619        -33.9268       0.00960562        -156.312
                               0               0                0               0       0.00969528        -155.577        0.0593769         -33.894
76.665                         0               0                0               0         0.126746         146.589         0.998349        -124.937
                               0               0                0               0         0.997921        -124.962         0.126518         146.476
                               0               0                0               0        0.0516169        -35.8159        0.0101918        -169.872
                               0               0                0               0         0.010228        -169.242        0.0516336        -35.7753
76.71                          0               0                0               0         0.128912         144.169         0.996756        -127.037
                               0               0                0               0         0.996437        -127.054         0.128758         144.079
                               0               0                0               0        0.0438695        -37.3166        0.0109738         177.704
                               0               0                0               0        0.0109802         178.124         0.043887        -37.2662
76.755                         0               0                0               0         0.131033         141.629         0.994161        -129.116
                               0               0                0               0         0.993946        -129.127         0.130919         141.559
                               0               0                0               0        0.0361482        -38.1791        0.0119218         166.355
                               0               0                0               0          0.01192         166.592        0.0361662        -38.1165
76.8                           0               0                0               0         0.133074         139.013         0.990634        -131.172
                               0               0                0               0         0.990503        -131.178         0.132982         138.957
                               0               0                0               0        0.0285062        -37.9277        0.0130168         156.034
                               0               0                0               0        0.0130171         156.158        0.0285248        -37.8492
76.845                         0               0                0               0         0.134999         136.344         0.986279        -133.203
                               0               0                0               0         0.986205        -133.206         0.134919         136.298
                               0               0                0               0        0.0210446        -35.4745         0.014235         146.695
                               0               0                0               0        0.0142382         146.763         0.021065        -35.3739
76.89                          0               0                0               0         0.136781         133.641         0.981219        -135.205
                               0               0                0               0         0.981173        -135.208         0.136708           133.6
                               0               0                0               0        0.0140069        -27.7079        0.0155456          138.27
                               0               0                0               0        0.0155479         138.313        0.0140317        -27.5768
76.935                         0               0                0               0         0.138395         130.917         0.975575        -137.179
                               0               0                0               0         0.975533        -137.182         0.138328         130.879
                               0               0                0               0       0.00830205        -3.58108        0.0169145         130.662
                               0               0                0               0        0.0169113         130.691       0.00833625        -3.46057
76.98                          0               0                0               0         0.139829         128.182         0.969469        -139.122
                               0               0                0               0          0.96941        -139.127         0.139766         128.146
                               0               0                0               0       0.00742756         49.8206        0.0183087         123.765
                               0               0                0               0        0.0182969         123.784        0.0074597         49.6932
77.025                         0               0                0               0         0.141073         125.447         0.963007        -141.035
                               0               0                0               0          0.96292        -141.041         0.141013         125.411
                               0               0                0               0        0.0121308         80.9631        0.0196995         117.477
                               0               0                0               0        0.0196776         117.487        0.0121481         80.8255
77.07                          0               0                0               0         0.142125         122.719         0.956288        -142.918
                               0               0                0               0         0.956166        -142.925         0.142067         122.682
                               0               0                0               0        0.0183247         91.2495        0.0210634         111.709
                               0               0                0               0        0.0210314         111.709        0.0183354         91.1559
77.115                         0               0                0               0         0.142985         120.005         0.949399        -144.769
                               0               0                0               0         0.949241        -144.777         0.142928         119.969
                               0               0                0               0        0.0247238         95.0034        0.0223825         106.385
                               0               0                0               0        0.0223414         106.377        0.0247317         94.9366
77.16                          0               0                0               0         0.143659         117.313         0.942415         -146.59
                               0               0                0               0         0.942223          -146.6         0.143602         117.276
                               0               0                0               0        0.0310411         96.2956        0.0236436         101.445
                               0               0                0               0        0.0235952         101.431         0.031048         96.2447
77.205                         0               0                0               0         0.144155         114.649           0.9354        -148.381