! TOUCHSTONE file generated by CST MICROWAVE STUDIO
! Date and time: Sun Jun 20 22:37:45 2021
! Project name: HIPS_d_sweep.cst
! Parameters = {fmax=120; fmin=75; b=0.46; d=22.7; a=0.63; phi=0; theta=0}
! Header version: 2018
! Port assignment regex: !\s*Touchstone port\s*([0-9]+)\s*=\s*(CST MWS port|CST DS port)\s*([0-9]+|Zmin|Zmax)\s*\(\"(.*)\"\)(\s*mode\s*([0-9]+))?.*
! Touchstone port assignment:
! Touchstone port 1 = CST MWS port Zmin ("") mode 1
! Touchstone port 2 = CST MWS port Zmin ("") mode 2
! Touchstone port 3 = CST MWS port Zmax ("") mode 1
! Touchstone port 4 = CST MWS port Zmax ("") mode 2
! S-Parameters are not renormalized. Unphysical impedance of 0 will be written to the file.
# GHz S MA R 0
75                             0               0                0               0        0.0035796        -126.159         0.992203         76.2747
                               0               0                0               0          0.99223         76.2729       0.00362337         -125.01
                               0               0                0               0         0.121114        -13.7365        0.0288125        -13.1099
                               0               0                0               0        0.0288351        -13.1522         0.121096         -13.767
75.045                         0               0                0               0       0.00652832        -149.748         0.993216         75.5348
                               0               0                0               0         0.993226          75.531       0.00621395        -152.622
                               0               0                0               0         0.118746        -14.4962        0.0292871        -13.0278
                               0               0                0               0        0.0293092        -13.0949         0.118728        -14.5282
75.09                          0               0                0               0       0.00956735        -161.492         0.993885         74.7128
                               0               0                0               0         0.993889         74.7077        0.0091217        -165.191
                               0               0                0               0         0.116141        -15.3109        0.0296471        -13.1327
                               0               0                0               0        0.0296682        -13.2116         0.116122        -15.3442
75.135                         0               0                0               0        0.0124454        -169.682           0.9943         73.8089
                               0               0                0               0         0.994306         73.8034        0.0119663        -173.056
                               0               0                0               0          0.11329        -16.1847        0.0298961        -13.4239
                               0               0                0               0        0.0299164        -13.5054         0.113271         -16.219
75.18                          0               0                0               0         0.015066        -176.203         0.994542         72.8241
                               0               0                0               0         0.994552         72.8187        0.0146155          -178.9
                               0               0                0               0         0.110187        -17.1211        0.0300371        -13.8989
                               0               0                0               0         0.030057        -13.9769         0.110168        -17.1564
75.225                         0               0                0               0        0.0173743         178.315         0.994679           71.76
                               0               0                0               0         0.994696         71.7551         0.016993         176.361
                               0               0                0               0         0.106824        -18.1237        0.0300716        -14.5541
                               0               0                0               0        0.0300918        -14.6245         0.106805        -18.1597
75.27                          0               0                0               0        0.0193377           173.6          0.99477         70.6187
                               0               0                0               0         0.994793         70.6147        0.0190465         172.339
                               0               0                0               0         0.103195        -19.1954        0.0300002         -15.385
                               0               0                0               0        0.0300216        -15.4456         0.103176        -19.2323
75.315                         0               0                0               0        0.0209372         169.505         0.994862         69.4028
                               0               0                0               0         0.994891         69.3996         0.020739         168.839
                               0               0                0               0        0.0992933         -20.339        0.0298225        -16.3861
                               0               0                0               0        0.0298461         -16.436         0.099275        -20.3768
75.36                          0               0                0               0         0.022163         165.937          0.99499         68.1148
                               0               0                0               0         0.995023         68.1127        0.0220467         165.749
                               0               0                0               0        0.0951145        -21.5567        0.0295376        -17.5513
                               0               0                0               0        0.0295641        -17.5907        0.0950964        -21.5955
75.405                         0               0                0               0        0.0230117         162.826         0.995179         66.7579
                               0               0                0               0         0.995215         66.7565        0.0229564         162.994
                               0               0                0               0        0.0906534        -22.8501        0.0291439        -18.8736
                               0               0                0               0        0.0291739        -18.9034        0.0906356        -22.8904
75.45                          0               0                0               0        0.0234837          160.11         0.995443          65.335
                               0               0                0               0          0.99548         65.3343        0.0234645         160.516
                               0               0                0               0        0.0859069        -24.2205        0.0286397        -20.3453
                               0               0                0               0        0.0286736        -20.3669        0.0858893        -24.2625
75.495                         0               0                0               0         0.023583         157.736         0.995787         63.8491
                               0               0                0               0         0.995826         63.8489        0.0235755         158.269
                               0               0                0               0        0.0808732         -25.668        0.0280235        -21.9578
                               0               0                0               0        0.0280611        -21.9729        0.0808558        -25.7123
75.54                          0               0                0               0        0.0233169         155.651         0.996207         62.3035
                               0               0                0               0         0.996248         62.3034        0.0233011         156.211
                               0               0                0               0        0.0755526        -27.1924        0.0272941        -23.7015
                               0               0                0               0        0.0273348        -23.7116        0.0755355        -27.2397
75.585                         0               0                0               0        0.0226963         153.808         0.996694         60.7009
                               0               0                0               0         0.996738         60.7009        0.0226585         154.306
                               0               0                0               0        0.0699478        -28.7923        0.0264509        -25.5659
                               0               0                0               0        0.0264937        -25.5724        0.0699309        -28.8435
75.63                          0               0                0               0        0.0217357          152.16         0.997231         59.0445
                               0               0                0               0         0.997279         59.0443        0.0216698         152.517
                               0               0                0               0        0.0640643        -30.4657        0.0254942        -27.5391
                               0               0                0               0        0.0255379         -27.543        0.0640478        -30.5218
75.675                         0               0                0               0        0.0204537         150.664         0.997796         57.3371
                               0               0                0               0         0.997851         57.3364        0.0203604         150.814
                               0               0                0               0         0.057911        -32.2095        0.0244256        -29.6086
                               0               0                0               0        0.0244686          -29.61         0.057895         -32.272
75.72                          0               0                0               0        0.0188726         149.281         0.998366         55.5813
                               0               0                0               0         0.998429         55.5801        0.0187578         149.166
                               0               0                0               0        0.0515001        -34.0197        0.0232477        -31.7603
                               0               0                0               0        0.0232883        -31.7584        0.0514849        -34.0905
75.765                         0               0                0               0        0.0170179         147.978         0.998913         53.7797
                               0               0                0               0         0.998987          53.778        0.0168909         147.547
                               0               0                0               0        0.0448476        -35.8915        0.0219645        -33.9789
                               0               0                0               0        0.0220011        -33.9719        0.0448338        -35.9736
75.81                          0               0                0               0        0.0149173         146.733         0.999411          51.935
                               0               0                0               0         0.999495         51.9328        0.0147888         145.935
                               0               0                0               0        0.0379733        -37.8198        0.0205813        -36.2477
                               0               0                0               0        0.0206124        -36.2322        0.0379612        -37.9176
75.855                         0               0                0               0        0.0125997         145.539         0.999833         50.0494
                               0               0                0               0         0.999928         50.0469        0.0124799          144.31
                               0               0                0               0        0.0308999        -39.7999        0.0191046         -38.548
                               0               0                0               0         0.019129        -38.5192        0.0308906        -39.9211
75.9                           0               0                0               0        0.0100942         144.425                1         48.1253
                               0               0                0               0                1         48.1227       0.00999117         142.661
                               0               0                0               0        0.0236534        -41.8295        0.0175419        -40.8581
                               0               0                0               0        0.0175587        -40.8094        0.0236477        -41.9894
75.945                         0               0                0               0        0.0074289         143.511                1          46.165
                               0               0                0               0                1         46.1625       0.00734796         140.986
                               0               0                0               0        0.0162614        -43.9165        0.0159014        -43.1518
                               0               0                0               0        0.0159104        -43.0745        0.0162605        -44.1521
75.99                          0               0                0               0       0.00463146         143.286                1         44.1708
                               0               0                0               0                1         44.1687       0.00457341         139.323
                               0               0                0               0       0.00875274        -46.1249        0.0141921         -45.395
                               0               0                0               0        0.0141933        -45.2777       0.00875795        -46.5704
76.035                         0               0                0               0       0.00173607         147.727                1         42.1451
                               0               0                0               0                1         42.1437       0.00168855         138.078
                               0               0                0               0       0.00115659        -50.4252        0.0124231        -47.5387
                               0               0                0               0        0.0124172        -47.3664       0.00117324        -53.8169
76.08                          0               0                0               0       0.00132315        -56.8346                1         40.0907
                               0               0                0               0                1         40.0901       0.00128879        -46.2135
                               0               0                0               0       0.00650359         130.536        0.0106039        -49.5055
                               0               0                0               0         0.010592        -49.2573       0.00648525          131.18
76.125                         0               0                0               0       0.00437016        -49.7403         0.999854         38.0105
                               0               0                0               0         0.999888         38.0108       0.00434033        -47.3437
                               0               0                0               0        0.0141999         128.215       0.00874425        -51.1563
                               0               0                0               0       0.00872781        -50.8005        0.0141726         128.524
76.17                          0               0                0               0       0.00749028        -50.1953         0.999455         35.9086
                               0               0                0               0         0.999436         35.9094       0.00745226        -49.3339
                               0               0                0               0        0.0219137          126.07       0.00685467         -52.202
                               0               0                0               0       0.00683592        -51.6841        0.0218775         126.283
76.215                         0               0                0               0        0.0106524        -51.7257         0.999005         33.7897
                               0               0                0               0          0.99892         33.7906        0.0106111        -51.5187
                               0               0                0               0        0.0296286         123.968       0.00494904        -51.9112
                               0               0                0               0       0.00493122        -51.1177         0.029584         124.137
76.26                          0               0                0               0        0.0138424        -53.6907         0.998545         31.6599
                               0               0                0               0         0.998384           31.66        0.0138048        -53.8342
                               0               0                0               0        0.0373329         121.884       0.00305608        -47.7483
                               0               0                0               0       0.00304591        -46.3659        0.0372809         122.028
76.305                         0               0                0               0        0.0170488        -55.9192          0.99811         29.5268
                               0               0                0               0         0.997873         29.5251        0.0170225        -56.2627
                               0               0                0               0        0.0450181         119.809       0.00133129         -23.637
                               0               0                0               0       0.00135647        -20.6203        0.0449603         119.937
76.35                          0               0                0               0        0.0202618        -58.3434         0.997723         27.3992
                               0               0                0               0         0.997419         27.3947         0.020254        -58.7954
                               0               0                0               0        0.0526782         117.736       0.00138907         66.3149
                               0               0                0               0       0.00145743         65.3029        0.0526167         117.852
76.395                         0               0                0               0         0.023473        -60.9282         0.997379         25.2866
                               0               0                0               0         0.997032         25.2788        0.0234899        -61.4253
                               0               0                0               0        0.0603077         115.659       0.00313749         88.5571
                               0               0                0               0       0.00318483          87.687        0.0602451         115.764
76.44                          0               0                0               0        0.0266752        -63.6504         0.997045         23.1988
                               0               0                0               0         0.996686         23.1879        0.0267219        -64.1444
                               0               0                0               0        0.0679001         113.571       0.00504377         92.3917
                               0               0                0               0       0.00507937         91.8592        0.0678392         113.666
76.485                         0               0                0               0        0.0298634        -66.4907         0.996661         21.1442
                               0               0                0               0         0.996326         21.1313        0.0299421        -66.9428
                               0               0                0               0        0.0754454         111.471       0.00696594         92.5155
                               0               0                0               0       0.00699119         92.1807        0.0753892         111.555
76.53                          0               0                0               0        0.0330355        -69.4295         0.996155         19.1287
                               0               0                0               0         0.995875          19.116        0.0331443        -69.8069
                               0               0                0               0        0.0829283         109.357       0.00887545         91.3206
                               0               0                0               0        0.0088892         91.1104        0.0828801         109.429
76.575                         0               0                0               0        0.0361937        -72.4419         0.995463         17.1551
                               0               0                0               0         0.995265         17.1452        0.0363232        -72.7175
                               0               0                0               0        0.0903257         107.233        0.0107568         89.5084
                               0               0                0               0        0.0107568         89.3775        0.0902894         107.292
76.62                          0               0                0               0        0.0393455        -75.4906          0.99456          15.222
                               0               0                0               0         0.994463         15.2172         0.039474        -75.6462
                               0               0                0               0        0.0976038         105.106        0.0125964         87.3585
                               0               0                0               0        0.0125798         87.2721         0.097584         105.152
76.665                         0               0                0               0        0.0425013        -78.5132         0.993465         13.3229
                               0               0                0               0         0.993487         13.3248        0.0425883        -78.5504
                               0               0                0               0         0.104713         102.986        0.0143795         85.0056
                               0               0                0               0         0.014344         84.9315         0.104715         103.023
76.71                          0               0                0               0        0.0456547        -81.4011         0.992222          11.445
                               0               0                0               0         0.992378         11.4529        0.0456415        -81.3679
                               0               0                0               0         0.111585         100.887        0.0160898         82.5225
                               0               0                0               0        0.0160341         82.4289          0.11161         100.918
76.755                         0               0                0               0        0.0487104        -83.9984         0.990815         9.56832
                               0               0                0               0         0.991099         9.57924        0.0485615        -84.0233
                               0               0                0               0         0.118128         98.8106        0.0177084           79.95
                               0               0                0               0        0.0176345         79.8059         0.118173         98.8422
76.8                           0               0                0               0         0.051356        -86.2464         0.989023         7.67087
                               0               0                0               0         0.989381         7.68025        0.0511799        -86.4838
                               0               0                0               0         0.124248         96.7468        0.0192149         77.3073
                               0               0                0               0        0.0191303         77.0862           0.1243         96.7828
76.845                         0               0                0               0         0.053207        -88.5278         0.986363         5.74282
                               0               0                0               0         0.986692          5.7484        0.0532564         -88.895
                               0               0                0               0         0.129883         94.6711        0.0205897         74.5952
                               0               0                0               0        0.0205081         74.2835         0.129926         94.7109
76.89                          0               0                0               0        0.0544471        -91.4301         0.982353         3.80149
                               0               0                0               0         0.982567         3.80535        0.0547306        -91.6163
                               0               0                0               0         0.135038         92.5609        0.0218183         71.7995
                               0               0                0               0        0.0217586         71.4061         0.135062            92.6
76.935                         0               0                0               0        0.0556337        -94.9268         0.976926         1.88247
                               0               0                0               0         0.977016         1.88808        0.0559091        -94.8649
                               0               0                0               0         0.139772         90.4126        0.0228974         68.9005
                               0               0                0               0        0.0228781         68.4615         0.139776         90.4466
76.98                          0               0                0               0        0.0569708        -98.6373         0.970462       0.0131545
                               0               0                0               0         0.970467       0.0218206        0.0571223        -98.4754
                               0               0                0               0         0.144155         88.2437        0.0238384         65.8891
                               0               0                0               0        0.0238689         65.4614         0.144146         88.2709
77.025                         0               0                0               0        0.0583931        -102.331         0.963447        -1.79912
                               0               0                0               0         0.963405        -1.78828        0.0584473        -102.181
                               0               0                0               0         0.148236         86.0807        0.0246633         62.7837
                               0               0                0               0        0.0247385         62.4252         0.148222         86.1019
77.07                          0               0                0               0        0.0598071        -105.936         0.956234        -3.55981
                               0               0                0               0         0.956163        -3.54834        0.0598185        -105.832
                               0               0                0               0         0.152042         83.9477        0.0253955         59.6324
                               0               0                0               0        0.0254971         59.3802         0.152026         83.9648
77.115                         0               0                0               0        0.0611535         -109.44         0.949016        -5.27763
                               0               0                0               0         0.948924         -5.2668        0.0611603        -109.382
                               0               0                0               0         0.155583         81.8618        0.0260501          56.498
                               0               0                0               0        0.0261553         56.3594         0.155569         81.8764
77.16                          0               0                0               0        0.0624019        -112.849         0.941886        -6.96002
                               0               0                0               0         0.941772        -6.95061        0.0624235        -112.824
                               0               0                0               0         0.158867         79.8331        0.0266321         53.4375
                               0               0                0               0        0.0267216         53.3961         0.158855         79.8466
77.205                         0               0                0               0        0.0635387        -116.169         0.934887        -8.61223