! TOUCHSTONE file generated by CST MICROWAVE STUDIO
! Date and time: Sun Jun 20 22:37:10 2021
! Project name: HIPS_d_sweep.cst
! Parameters = {fmax=120; fmin=75; b=0.46; d=19.15; a=0.63; phi=0; theta=0}
! Header version: 2018
! Port assignment regex: !\s*Touchstone port\s*([0-9]+)\s*=\s*(CST MWS port|CST DS port)\s*([0-9]+|Zmin|Zmax)\s*\(\"(.*)\"\)(\s*mode\s*([0-9]+))?.*
! Touchstone port assignment:
! Touchstone port 1 = CST MWS port Zmin ("") mode 1
! Touchstone port 2 = CST MWS port Zmin ("") mode 2
! Touchstone port 3 = CST MWS port Zmax ("") mode 1
! Touchstone port 4 = CST MWS port Zmax ("") mode 2
! S-Parameters are not renormalized. Unphysical impedance of 0 will be written to the file.
# GHz S MA R 0
75                             0               0                0               0          0.23232        -148.829         0.948169         118.452
                               0               0                0               0         0.948322         118.451         0.232216         -148.83
                               0               0                0               0         0.204677         31.8632        0.0694961         74.7634
                               0               0                0               0          0.06948         74.7991          0.20464         31.8764
75.045                         0               0                0               0         0.233901        -149.926         0.949304         117.336
                               0               0                0               0         0.949466         117.336         0.233761        -149.931
                               0               0                0               0         0.203868         30.8001         0.070177         73.0629
                               0               0                0               0        0.0701583         73.0966         0.203833         30.8133
75.09                          0               0                0               0         0.235393        -151.044           0.9504         116.205
                               0               0                0               0          0.95057         116.207         0.235221        -151.052
                               0               0                0               0         0.202974         29.7264        0.0708476         71.3404
                               0               0                0               0        0.0708266         71.3723         0.202942         29.7397
75.135                         0               0                0               0         0.236792        -152.183         0.951453         115.059
                               0               0                0               0         0.951632         115.063          0.23659        -152.193
                               0               0                0               0         0.201994         28.6421        0.0715062         69.5957
                               0               0                0               0        0.0714831          69.626         0.201964         28.6554
75.18                          0               0                0               0         0.238094        -153.341         0.952462         113.899
                               0               0                0               0         0.952648         113.904         0.237864        -153.353
                               0               0                0               0         0.200924         27.5473        0.0721507         67.8283
                               0               0                0               0        0.0721258         67.8573         0.200896         27.5605
75.225                         0               0                0               0         0.239293        -154.519         0.953423         112.725
                               0               0                0               0         0.953618         112.731          0.23904        -154.532
                               0               0                0               0         0.199763          26.442        0.0727792         66.0382
                               0               0                0               0        0.0727527         66.0659         0.199737         26.4552
75.27                          0               0                0               0         0.240386        -155.716         0.954334         111.536
                               0               0                0               0         0.954536         111.543         0.240114         -155.73
                               0               0                0               0         0.198508         25.3264        0.0733895          64.225
                               0               0                0               0        0.0733618         64.2518         0.198484         25.3396
75.315                         0               0                0               0         0.241371        -156.931         0.955192         110.333
                               0               0                0               0         0.955401         110.341         0.241081        -156.946
                               0               0                0               0         0.197156         24.2005        0.0739794         62.3888
                               0               0                0               0        0.0739507         62.4147         0.197134         24.2137
75.36                          0               0                0               0         0.242242        -158.164         0.955995         109.116
                               0               0                0               0          0.95621         109.124         0.241939         -158.18
                               0               0                0               0         0.195705         23.0646        0.0745465         60.5294
                               0               0                0               0        0.0745171         60.5546         0.195684         23.0777
75.405                         0               0                0               0         0.242999        -159.415         0.956739         107.884
                               0               0                0               0          0.95696         107.893         0.242685         -159.43
                               0               0                0               0         0.194153         21.9189        0.0750884         58.6469
                               0               0                0               0        0.0750587         58.6714         0.194134          21.932
75.45                          0               0                0               0         0.243637        -160.681         0.957421         106.638
                               0               0                0               0         0.957648         106.648         0.243317        -160.696
                               0               0                0               0         0.192498         20.7636        0.0756028         56.7414
                               0               0                0               0        0.0755731         56.7654          0.19248         20.7767
75.495                         0               0                0               0         0.244157        -161.964         0.958039         105.378
                               0               0                0               0         0.958272         105.388         0.243832        -161.978
                               0               0                0               0         0.190736         19.5991         0.076087          54.813
                               0               0                0               0        0.0760575         54.8365          0.19072         19.6121
75.54                          0               0                0               0         0.244555        -163.261          0.95859         104.104
                               0               0                0               0         0.958827         104.114         0.244229        -163.274
                               0               0                0               0         0.188867         18.4256        0.0765384         52.8621
                               0               0                0               0        0.0765096         52.8851         0.188851         18.4386
75.585                         0               0                0               0         0.244831        -164.572          0.95907         102.817
                               0               0                0               0         0.959312         102.827         0.244506        -164.584
                               0               0                0               0         0.186887         17.2437        0.0769546         50.8888
                               0               0                0               0        0.0769267         50.9115         0.186872         17.2567
75.63                          0               0                0               0         0.244985        -165.896         0.959478         101.516
                               0               0                0               0         0.959723         101.526         0.244664        -165.906
                               0               0                0               0         0.184794         16.0539        0.0773328         48.8938
                               0               0                0               0        0.0773061         48.9161         0.184781         16.0668
75.675                         0               0                0               0         0.245017        -167.231         0.959811         100.202
                               0               0                0               0         0.960058         100.211         0.244703         -167.24
                               0               0                0               0         0.182588         14.8566        0.0776705         46.8775
                               0               0                0               0        0.0776454         46.8995         0.182576         14.8695
75.72                          0               0                0               0         0.244927        -168.578         0.960065          98.874
                               0               0                0               0         0.960314         98.8832         0.244622        -168.586
                               0               0                0               0         0.180266         13.6526        0.0779653         44.8407
                               0               0                0               0         0.077942         44.8622         0.180255         13.6655
75.765                         0               0                0               0         0.244717        -169.935         0.960238         97.5335
                               0               0                0               0         0.960488         97.5422         0.244423        -169.941
                               0               0                0               0         0.177827         12.4426        0.0782146         42.7839
                               0               0                0               0        0.0781933          42.805         0.177817         12.4555
75.81                          0               0                0               0         0.244389        -171.301         0.960327         96.1803
                               0               0                0               0         0.960578         96.1884         0.244107        -171.305
                               0               0                0               0         0.175268         11.2274         0.078416         40.7081
                               0               0                0               0        0.0783971         40.7287          0.17526         11.2404
75.855                         0               0                0               0         0.243944        -172.675         0.960331         94.8147
                               0               0                0               0         0.960581         94.8222         0.243676        -172.677
                               0               0                0               0          0.17259         10.0081        0.0785674         38.6142
                               0               0                0               0         0.078551         38.6342         0.172583         10.0211
75.9                           0               0                0               0         0.243386        -174.057         0.960246         93.4368
                               0               0                0               0         0.960496         93.4436         0.243133        -174.056
                               0               0                0               0         0.169792         8.78567        0.0786666         36.5033
                               0               0                0               0         0.078653         36.5226         0.169785         8.79866
75.945                         0               0                0               0         0.242717        -175.444         0.960071         92.0472
                               0               0                0               0         0.960319         92.0532         0.242481        -175.441
                               0               0                0               0         0.166872         7.56139        0.0787118         34.3764
                               0               0                0               0        0.0787011          34.395         0.166866         7.57441
75.99                          0               0                0               0         0.241942        -176.836         0.959804          90.646
                               0               0                0               0         0.960049         90.6512         0.241724        -176.831
                               0               0                0               0         0.163831         6.33664        0.0787013         32.2348
                               0               0                0               0        0.0786935         32.2525         0.163826         6.34968
76.035                         0               0                0               0         0.241064        -178.232         0.959442         89.2336
                               0               0                0               0         0.959683         89.2379         0.240864        -178.225
                               0               0                0               0         0.160668         5.11297        0.0786335         30.0798
                               0               0                0               0        0.0786288         30.0965         0.160664         5.12604
76.08                          0               0                0               0         0.240089        -179.632         0.958984         87.8103
                               0               0                0               0         0.959221         87.8137         0.239907        -179.623
                               0               0                0               0         0.157385         3.89215        0.0785073         27.9127
                               0               0                0               0        0.0785057         27.9283         0.157382         3.90523
76.125                         0               0                0               0         0.239019         178.967         0.958429         86.3766
                               0               0                0               0         0.958661          86.379         0.238856         178.977
                               0               0                0               0         0.153982         2.67612        0.0783217         25.7349
                               0               0                0               0        0.0783233         25.7493          0.15398         2.68922
76.17                          0               0                0               0         0.237862         177.564         0.957774         84.9329
                               0               0                0               0            0.958         84.9343         0.237717         177.576
                               0               0                0               0          0.15046         1.46711        0.0780761          23.548
                               0               0                0               0        0.0780809         23.5611         0.150459         1.48021
76.215                         0               0                0               0         0.236621          176.16          0.95702         83.4794
                               0               0                0               0         0.957239         83.4799         0.236495         176.174
                               0               0                0               0         0.146821        0.267594        0.0777702         21.3534
                               0               0                0               0         0.077778          21.365         0.146821        0.280678
76.26                          0               0                0               0         0.235302         174.757         0.956165         82.0168
                               0               0                0               0         0.956377         82.0162         0.235194         174.772
                               0               0                0               0         0.143068       -0.919643         0.077404         19.1527
                               0               0                0               0        0.0774147         19.1627         0.143069       -0.906596
76.305                         0               0                0               0         0.233912         173.355         0.955209         80.5453
                               0               0                0               0         0.955412         80.5437         0.233821         173.372
                               0               0                0               0         0.139203        -2.09146        0.0769776         16.9475
                               0               0                0               0        0.0769912         16.9558         0.139206        -2.07848
76.35                          0               0                0               0         0.232455         171.955         0.954151         79.0655
                               0               0                0               0         0.954346          79.063         0.232381         171.973
                               0               0                0               0          0.13523        -3.24431        0.0764919         14.7392
                               0               0                0               0         0.076508         14.7457         0.135233        -3.23143
76.395                         0               0                0               0         0.230938         170.557         0.952991         77.5778
                               0               0                0               0         0.953176         77.5743          0.23088         170.576
                               0               0                0               0         0.131152         -4.3742        0.0759476         12.5295
                               0               0                0               0        0.0759662         12.5341         0.131157        -4.36145
76.44                          0               0                0               0         0.229365         169.162          0.95173         76.0828
                               0               0                0               0         0.951905         76.0784         0.229323         169.182
                               0               0                0               0         0.126974        -5.47656         0.075346         10.3199
                               0               0                0               0        0.0753667         10.3224          0.12698          -5.464
76.485                         0               0                0               0         0.227744         167.772         0.950367         74.5808
                               0               0                0               0         0.950532         74.5755         0.227715         167.792
                               0               0                0               0         0.122702        -6.54623        0.0746886         8.11173
                               0               0                0               0        0.0747113         8.11221         0.122709        -6.53392
76.53                          0               0                0               0         0.226079         166.385         0.948904         73.0725
                               0               0                0               0         0.949058         73.0664         0.226064         166.406
                               0               0                0               0          0.11834        -7.57727        0.0739773         5.90652
                               0               0                0               0        0.0740016         5.90488         0.118349        -7.56528
76.575                         0               0                0               0         0.224377         165.003         0.947342         71.5582
                               0               0                0               0         0.947485         71.5514         0.224373         165.024
                               0               0                0               0         0.113896        -8.56289        0.0732139         3.70558
                               0               0                0               0        0.0732396         3.70181         0.113905        -8.55129
76.62                          0               0                0               0         0.222642         163.627         0.945682         70.0387
                               0               0                0               0         0.945813         70.0311         0.222649         163.648
                               0               0                0               0         0.109376        -9.49521        0.0724008          1.5102
                               0               0                0               0        0.0724275         1.50426         0.109387         -9.4841
76.665                         0               0                0               0          0.22088         162.256         0.943926         68.5142
                               0               0                0               0         0.944045          68.506         0.220896         162.277
                               0               0                0               0         0.104789        -10.3651        0.0715404       -0.678472
                               0               0                0               0        0.0715679       -0.686548           0.1048        -10.3546
76.71                          0               0                0               0         0.219097         160.891         0.942076         66.9855
                               0               0                0               0         0.942183         66.9768          0.21912         160.911
                               0               0                0               0         0.100142        -11.1618        0.0706352        -2.85934
                               0               0                0               0        0.0706632        -2.86953         0.100154         -11.152
76.755                         0               0                0               0         0.217296         159.532         0.940133          65.453
                               0               0                0               0         0.940228         65.4438         0.217327         159.552
                               0               0                0               0        0.0954457        -11.8727        0.0696881        -5.03144
                               0               0                0               0        0.0697162        -5.04369        0.0954587        -11.8638
76.8                           0               0                0               0         0.215484          158.18         0.938101         63.9173
                               0               0                0               0         0.938183         63.9077          0.21552         158.199
                               0               0                0               0        0.0907105        -12.4829        0.0687018        -7.19391
                               0               0                0               0        0.0687297        -7.20815        0.0907242         -12.475
76.845                         0               0                0               0         0.213664         156.835         0.935982         62.3789
                               0               0                0               0         0.936052          62.369         0.213704         156.853
                               0               0                0               0        0.0859478        -12.9743        0.0676792        -9.34603
                               0               0                0               0        0.0677066        -9.36216        0.0859621        -12.9677
76.89                          0               0                0               0         0.211841         155.496         0.933779         60.8383
                               0               0                0               0         0.933837         60.8282         0.211884         155.513
                               0               0                0               0        0.0811708        -13.3252        0.0666232        -11.4872
                               0               0                0               0          0.06665        -11.5051        0.0811854        -13.3201
76.935                         0               0                0               0         0.210018         154.165         0.931495         59.2961
                               0               0                0               0         0.931541         59.2859         0.210063         154.181
                               0               0                0               0        0.0763938        -13.5094        0.0655368        -13.6169
                               0               0                0               0        0.0655626        -13.6364        0.0764086         -13.506
76.98                          0               0                0               0           0.2082         152.841         0.929134         57.7528
                               0               0                0               0         0.929168         57.7426         0.208246         152.855
                               0               0                0               0        0.0716335        -13.4944        0.0644229        -15.7347
                               0               0                0               0        0.0644476        -15.7558        0.0716482        -13.4931
77.025                         0               0                0               0         0.206391         151.525           0.9267         56.2089
                               0               0                0               0         0.926723         56.1988         0.206436         151.537
                               0               0                0               0        0.0669089        -13.2403        0.0632844        -17.8406
                               0               0                0               0        0.0633077        -17.8629        0.0669233        -13.2413
77.07                          0               0                0               0         0.204593         150.216         0.924196          54.665
                               0               0                0               0         0.924208         54.6551         0.204637         150.226
                               0               0                0               0        0.0622424        -12.6972        0.0621241        -19.9343
                               0               0                0               0        0.0621459        -19.9577        0.0622562        -12.7011
77.115                         0               0                0               0          0.20281         148.914         0.921627         53.1215
                               0               0                0               0         0.921628         53.1119         0.202852         148.922
                               0               0                0               0         0.057661         -11.803        0.0609449         -22.016
                               0               0                0               0        0.0609649        -22.0403        0.0576738        -11.8103
77.16                          0               0                0               0         0.201044          147.62         0.918996          51.579
                               0               0                0               0         0.918988         51.5698         0.201083         147.626
                               0               0                0               0        0.0531971        -10.4804        0.0597493        -24.0857
                               0               0                0               0        0.0597675        -24.1107        0.0532086        -10.4915
77.205                         0               0                0               0         0.199299         146.333         0.916309         50.0379