! TOUCHSTONE file generated by CST MICROWAVE STUDIO
! Date and time: Mon Jun 21 17:06:30 2021
! Project name: HIPS_d_sweep.cst
! Parameters = {a=0.735; b=0.393; d=17.3065; fmax=120; fmin=75; phi=0; theta=0}
! Header version: 2018
! Port assignment regex: !\s*Touchstone port\s*([0-9]+)\s*=\s*(CST MWS port|CST DS port)\s*([0-9]+|Zmin|Zmax)\s*\(\"(.*)\"\)(\s*mode\s*([0-9]+))?.*
! Touchstone port assignment:
! Touchstone port 1 = CST MWS port Zmin ("") mode 1
! Touchstone port 2 = CST MWS port Zmin ("") mode 2
! Touchstone port 3 = CST MWS port Zmax ("") mode 1
! Touchstone port 4 = CST MWS port Zmax ("") mode 2
! S-Parameters are not renormalized. Unphysical impedance of 0 will be written to the file.
# GHz S MA R 0
75                      0.166322         17.9805                0               0         0.421765         5.61695                0               0
                        0.116587         44.5516                0               0         0.883672        -87.0513                0               0
                        0.421766         5.61697                0               0         0.166234         18.0682                0               0
                        0.883662        -87.0509                0               0         0.116638         44.6611                0               0
75.045                  0.165063         17.7348                0               0         0.424855         5.07526                0               0
                        0.117036         43.6505                0               0          0.88302        -87.5261                0               0
                        0.424855         5.07467                0               0         0.164978         17.8241                0               0
                        0.883011        -87.5256                0               0         0.117091         43.7624                0               0
75.09                   0.163678          17.469                0               0         0.427552         4.46902                0               0
                        0.117417         42.6902                0               0         0.882101        -88.0984                0               0
                        0.427552         4.46816                0               0         0.163595         17.5597                0               0
                        0.882091         -88.098                0               0         0.117474         42.8036                0               0
75.135                  0.162167         17.1809                0               0         0.429901         3.79639                0               0
                        0.117736         41.6637                0               0         0.881093        -88.7605                0               0
                        0.429901         3.79554                0               0         0.162087          17.273                0               0
                        0.881084        -88.7601                0               0         0.117792         41.7777                0               0
75.18                   0.160534         16.8689                0               0         0.431946         3.05688                0               0
                        0.117999          40.564                0               0         0.880123        -89.5041                0               0
                        0.431947         3.05624                0               0         0.160455         16.9623                0               0
                        0.880114        -89.5036                0               0         0.118051         40.6776                0               0
75.225                  0.158779         16.5324                0               0         0.433725         2.25105                0               0
                        0.118215          39.384                0               0         0.879273        -90.3209                0               0
                        0.433727         2.25074                0               0           0.1587         16.6268                0               0
                        0.879264        -90.3204                0               0         0.118262         39.4963                0               0
75.27                   0.156904         16.1719                0               0         0.435274          1.3803                0               0
                        0.118398         38.1168                0               0         0.878587        -91.2033                0               0
                        0.435275         1.38035                0               0         0.156825          16.267                0               0
                        0.878578        -91.2028                0               0         0.118437         38.2272                0               0
75.315                  0.154909           15.79                0               0          0.43662        0.446608                0               0
                        0.118564          36.755                0               0         0.878084        -92.1447                0               0
                        0.436621        0.447005                0               0         0.154829         15.8853                0               0
                        0.878074        -92.1443                0               0         0.118592         36.8631                0               0
75.36                   0.152795         15.3934                0               0         0.437786       -0.547629                0               0
                        0.118732         35.2898                0               0         0.877761        -93.1397                0               0
                        0.437786       -0.546947                0               0         0.152711         15.4882                0               0
                        0.877751        -93.1392                0               0         0.118747         35.3962                0               0
75.405                  0.150557          14.999                0               0         0.438788         -1.5998                0               0
                        0.118922         33.7096                0               0         0.877603        -94.1836                0               0
                        0.438788        -1.59892                0               0         0.150463         15.0916                0               0
                        0.877593        -94.1831                0               0         0.118921          33.816                0               0
75.45                   0.148198         14.6569                0               0         0.439638         -2.7072                0               0
                        0.119148         31.9982                0               0         0.877585        -95.2732                0               0
                        0.439637        -2.70624                0               0         0.148072         14.7438                0               0
                        0.877576        -95.2727                0               0          0.11913         32.1075                0               0
75.495                  0.145892         14.5817                0               0         0.440341        -3.86719                0               0
                        0.119402         30.1341                0               0          0.87768        -96.4061                0               0
                         0.44034        -3.86626                0               0         0.145607         14.6632                0               0
                        0.877671        -96.4057                0               0         0.119373         30.2501                0               0
75.54                   0.148895         14.4836                0               0         0.440901        -5.07727                0               0
                        0.119637         28.0985                0               0         0.877857         -97.581                0               0
                        0.440899        -5.07647                0               0         0.149414         15.1408                0               0
                        0.877848        -97.5806                0               0         0.119611         28.2228                0               0
75.585                  0.143261         11.9242                0               0         0.441314        -6.33519                0               0
                        0.119767         25.8949                0               0         0.878093        -98.7973                0               0
                        0.441313         -6.3346                0               0         0.143227         11.9738                0               0
                        0.878085        -98.7968                0               0         0.119757         26.0231                0               0
75.63                   0.139419         11.4944                0               0         0.441577        -7.63903                0               0
                        0.119712         23.5664                0               0          0.87837        -100.055                0               0
                        0.441577        -7.63868                0               0         0.139358         11.5981                0               0
                        0.878362        -100.055                0               0          0.11972         23.6899                0               0
75.675                  0.136283         10.9697                0               0         0.441684        -8.98725                0               0
                        0.119482         21.1766                0               0          0.87868        -101.355                0               0
                        0.441685        -8.98716                0               0         0.136231         11.0844                0               0
                        0.878672        -101.354                0               0         0.119492         21.2912                0               0
75.72                   0.133231         10.3847                0               0         0.441629        -10.3788                0               0
                        0.119161         18.7665                0               0          0.87903        -102.697                0               0
                        0.441632        -10.3789                0               0         0.133186         10.5041                0               0
                        0.879022        -102.697                0               0         0.119162         18.8748                0               0
75.765                  0.130141         9.76726                0               0         0.441407        -11.8129                0               0
                         0.11884         16.3398                0               0         0.879437        -104.083                0               0
                        0.441412        -11.8132                0               0         0.130102         9.89017                0               0
                         0.87943        -104.082                0               0         0.118829         16.4469                0               0
75.81                   0.126976         9.13313                0               0         0.441017        -13.2895                0               0
                        0.118563         13.8823                0               0         0.879934        -105.511                0               0
                        0.441024        -13.2898                0               0         0.126941         9.25929                0               0
                        0.879927        -105.511                0               0         0.118544         13.9914                0               0
75.855                  0.123717         8.49368                0               0         0.440462        -14.8083                0               0
                        0.118339         11.3796                0               0         0.880558        -106.981                0               0
                         0.44047        -14.8086                0               0         0.123687         8.62319                0               0
                        0.880551         -106.98                0               0         0.118316         11.4916                0               0
75.9                    0.120357         7.85913                0               0         0.439754        -16.3695                0               0
                        0.118156         8.82373                0               0         0.881351        -108.489                0               0
                        0.439762        -16.3697                0               0         0.120332         7.99225                0               0
                        0.881345        -108.489                0               0         0.118132         8.93837                0               0
75.945                   0.11689         7.23989                0               0          0.43891        -17.9725                0               0
                        0.117996         6.21214                0               0         0.882347        -110.032                0               0
                        0.438918        -17.9725                0               0         0.116871         7.37693                0               0
                        0.882341        -110.032                0               0         0.117972         6.32881                0               0
75.99                   0.113316         6.64727                0               0         0.437957        -19.6161                0               0
                        0.117838         3.54617                0               0         0.883566        -111.605                0               0
                        0.437962         -19.616                0               0         0.113302          6.7886                0               0
                         0.88356        -111.605                0               0         0.117815         3.66421                0               0
76.035                  0.109634         6.09402                0               0         0.436924        -21.2976                0               0
                        0.117665        0.829261                0               0         0.885009        -113.202                0               0
                        0.436925        -21.2974                0               0         0.109627         6.24005                0               0
                        0.885003        -113.202                0               0         0.117642        0.948174                0               0
76.08                   0.105848         5.59474                0               0         0.435844        -23.0125                0               0
                        0.117459        -1.93396                0               0         0.886654        -114.817                0               0
                        0.435841        -23.0125                0               0         0.105847         5.74589                0               0
                        0.886649        -114.817                0               0         0.117435        -1.81455                0               0
76.125                  0.101962         5.16634                0               0         0.434744        -24.7547                0               0
                        0.117205        -4.73826                0               0          0.88846        -116.444                0               0
                        0.434736        -24.7551                0               0         0.101968         5.32305                0               0
                        0.888456        -116.444                0               0         0.117179         -4.6186                0               0
76.17                  0.0979855         4.82848                0               0         0.433639        -26.5167                0               0
                        0.116887        -7.57811                0               0         0.890371        -118.079                0               0
                        0.433628        -26.5176                0               0         0.097999         4.99121                0               0
                        0.890367        -118.079                0               0         0.116859        -7.45833                0               0
76.215                 0.0939297         4.60406                0               0         0.432535        -28.2903                0               0
                        0.116495        -10.4478                0               0         0.892317        -119.717                0               0
                        0.432522        -28.2916                0               0        0.0939514         4.77328                0               0
                        0.892314        -119.716                0               0         0.116463         -10.328                0               0
76.26                  0.0898105         4.51981                0               0          0.43142        -30.0671                0               0
                        0.116017        -13.3415                0               0          0.89423        -121.355                0               0
                        0.431407         -30.069                0               0        0.0898412         4.69593                0               0
                        0.894227        -121.354                0               0         0.115981        -13.2217                0               0
76.305                 0.0856483         4.60677                0               0         0.430274        -31.8399                0               0
                        0.115444        -16.2535                0               0         0.896038        -122.991                0               0
                        0.430261        -31.8421                0               0        0.0856889         4.79018                0               0
                        0.896036        -122.991                0               0         0.115403        -16.1336                0               0
76.35                  0.0814688         4.90087                0               0         0.429067        -33.6024                0               0
                         0.11477        -19.1779                0               0          0.89768        -124.624                0               0
                        0.429057        -33.6048                0               0        0.0815202         5.09186                0               0
                        0.897678        -124.623                0               0         0.114723        -19.0579                0               0
76.395                 0.0773037         5.44331                0               0         0.427771        -35.3499                0               0
                        0.113989        -22.1091                0               0         0.899098        -126.252                0               0
                        0.427762        -35.3524                0               0        0.0773669         5.64198                0               0
                        0.899097        -126.252                0               0         0.113937        -21.9889                0               0
76.44                  0.0731915         6.28061                0               0         0.426355        -37.0792                0               0
                        0.113099        -25.0413                0               0         0.900247        -127.875                0               0
                        0.426349        -37.0814                0               0        0.0732676         6.48678                0               0
                        0.900246        -127.875                0               0         0.113041         -24.921                0               0
76.485                 0.0691783         7.46405                0               0         0.424798        -38.7878                0               0
                          0.1121        -27.9692                0               0         0.901089        -129.493                0               0
                        0.424794        -38.7897                0               0        0.0692685         7.67716                0               0
                        0.901087        -129.492                0               0         0.112036        -27.8486                0               0
76.53                  0.0653186           9.048                0               0         0.423082        -40.4742                0               0
                        0.110992        -30.8876                0               0         0.901594        -131.104                0               0
                         0.42308        -40.4756                0               0        0.0654241         9.26687                0               0
                        0.901593        -131.104                0               0         0.110922        -30.7666                0               0
76.575                 0.0616757         11.0864                0               0         0.421198        -42.1373                0               0
                         0.10978        -33.7914                0               0         0.901742        -132.708                0               0
                        0.421197        -42.1382                0               0        0.0617976          11.309                0               0
                        0.901741        -132.708                0               0         0.109704        -33.6701                0               0
76.62                   0.058321         13.6264                0               0         0.419141        -43.7761                0               0
                        0.108467        -36.6762                0               0          0.90152        -134.305                0               0
                        0.419141        -43.7765                0               0        0.0584602         13.8497                0               0
                        0.901519        -134.305                0               0         0.108387        -36.5544                0               0
76.665                 0.0553329         16.6992                0               0         0.416915        -45.3898                0               0
                        0.107062        -39.5377                0               0         0.900921        -135.893                0               0
                        0.416915        -45.3897                0               0        0.0554899         16.9188                0               0
                         0.90092        -135.893                0               0         0.106977        -39.4156                0               0
76.71                  0.0527928         20.3066                0               0         0.414526        -46.9777                0               0
                        0.105572        -42.3722                0               0         0.899944        -137.472                0               0
                        0.414526        -46.9771                0               0        0.0529676          20.517                0               0
                        0.899943        -137.472                0               0         0.105482        -42.2497                0               0
76.755                 0.0507794         24.4081                0               0         0.411984        -48.5389                0               0
                        0.104006        -45.1766                0               0         0.898593         -139.04                0               0
                        0.411984        -48.5378                0               0        0.0509711         24.6027                0               0
                        0.898591         -139.04                0               0         0.103911        -45.0537                0               0
76.8                   0.0493593         28.9099                0               0         0.409302        -50.0725                0               0
                        0.102373         -47.948                0               0         0.896876        -140.597                0               0
                        0.409302        -50.0711                0               0        0.0495661          29.082                0               0
                        0.896875        -140.597                0               0         0.102274        -47.8248                0               0
76.845                 0.0485776         33.6661                0               0         0.406497        -51.5777                0               0
                        0.100683        -50.6843                0               0         0.894808        -142.141                0               0
                        0.406497        -51.5761                0               0        0.0487968         33.8101                0               0
                        0.894807        -142.141                0               0         0.100581        -50.5609                0               0
76.89                  0.0484497         38.4939                0               0         0.403587        -53.0538                0               0
                       0.0989472        -53.3839                0               0         0.892404        -143.671                0               0
                        0.403586        -53.0519                0               0        0.0486779         38.6061                0               0
                        0.892403        -143.672                0               0        0.0988423        -53.2604                0               0
76.935                 0.0489572         43.2024                0               0         0.400589        -54.4999                0               0
                       0.0971755        -56.0457                0               0         0.889685        -145.187                0               0
                        0.400589        -54.4979                0               0        0.0491906         43.2817                0               0
                        0.889684        -145.187                0               0        0.0970678        -55.9221                0               0
76.98                  0.0500511         47.6237                0               0         0.397523        -55.9154                0               0
                        0.095378        -58.6691                0               0         0.886674        -146.686                0               0
                        0.397524        -55.9134                0               0        0.0502862          47.672                0               0
                        0.886673        -146.686                0               0        0.0952678        -58.5456                0               0
77.025                 0.0516601         51.6362                0               0         0.394411           -57.3                0               0
                       0.0935642        -61.2541                0               0         0.883396        -148.168                0               0
                        0.394411         -57.298                0               0        0.0518939         51.6572                0               0
                        0.883394        -148.168                0               0        0.0934519        -61.1307                0               0
77.07                  0.0537011         55.1721                0               0         0.391272        -58.6532                0               0
                       0.0917434         -63.801                0               0         0.879879        -149.631                0               0
                        0.391273        -58.6513                0               0        0.0539313         55.1704                0               0
                        0.879877        -149.632                0               0        0.0916292        -63.6779                0               0
77.115                 0.0560891         58.2114                0               0         0.388127         -59.975                0               0
                       0.0899242        -66.3106                0               0         0.876151        -151.076                0               0
                        0.388128        -59.9733                0               0         0.056314         58.1919                0               0
                        0.876149        -151.076                0               0        0.0898083        -66.1879                0               0
77.16                  0.0587441         60.7696                0               0         0.384995        -61.2657                0               0
                       0.0881145        -68.7842                0               0         0.872243        -152.501                0               0
                        0.384996        -61.2642                0               0        0.0589626         60.7366                0               0
                        0.872241        -152.501                0               0        0.0879971        -68.6621                0               0
77.205                 0.0615951         62.8837                0               0         0.381896        -62.5256                0               0