! TOUCHSTONE file generated by CST MICROWAVE STUDIO
! Date and time: Mon Jun 21 17:07:17 2021
! Project name: HIPS_d_sweep.cst
! Parameters = {a=0.735; b=0.393; d=23.1357; fmax=120; fmin=75; phi=0; theta=0}
! Header version: 2018
! Port assignment regex: !\s*Touchstone port\s*([0-9]+)\s*=\s*(CST MWS port|CST DS port)\s*([0-9]+|Zmin|Zmax)\s*\(\"(.*)\"\)(\s*mode\s*([0-9]+))?.*
! Touchstone port assignment:
! Touchstone port 1 = CST MWS port Zmin ("") mode 1
! Touchstone port 2 = CST MWS port Zmin ("") mode 2
! Touchstone port 3 = CST MWS port Zmax ("") mode 1
! Touchstone port 4 = CST MWS port Zmax ("") mode 2
! S-Parameters are not renormalized. Unphysical impedance of 0 will be written to the file.
# GHz S MA R 0
75                      0.248834          43.592                0               0        0.0583046         51.0611                0               0
                        0.034627         68.5592                0               0         0.966171        -46.8873                0               0
                       0.0583065         51.0641                0               0         0.248834         43.5553                0               0
                        0.966168        -46.8849                0               0        0.0346438         68.5855                0               0
75.045                  0.248977         42.9616                0               0        0.0615056         50.1288                0               0
                        0.035397         68.7338                0               0         0.967383        -47.5678                0               0
                       0.0615023         50.1378                0               0         0.248977         42.9259                0               0
                        0.967443        -47.5655                0               0        0.0355393         68.5575                0               0
75.09                   0.248863         42.2553                0               0         0.064563         49.1263                0               0
                       0.0361214         68.7902                0               0         0.968078        -48.3228                0               0
                       0.0645563         49.1386                0               0         0.248862         42.2203                0               0
                        0.968178        -48.3203                0               0        0.0363756         68.5063                0               0
75.135                  0.248525         41.4657                0               0        0.0674423         48.0596                0               0
                        0.036797         68.7004                0               0         0.968346        -49.1555                0               0
                       0.0674338         48.0729                0               0         0.248522         41.4311                0               0
                        0.968464        -49.1526                0               0        0.0371336         68.3916                0               0
75.18                   0.247999         40.5883                0               0        0.0701107         46.9333                0               0
                       0.0374246         68.4387                0               0         0.968276        -50.0678                0               0
                       0.0701017         46.9462                0               0         0.247996         40.5541                0               0
                        0.968396        -50.0647                0               0        0.0378014          68.166                0               0
75.225                   0.24732         39.6215                0               0        0.0725382         45.7515                0               0
                        0.038008         67.9833                0               0         0.967959        -51.0611                0               0
                       0.0725298         45.7628                0               0         0.247316         39.5875                0               0
                        0.968067        -51.0578                0               0        0.0383776          67.781                0               0
75.27                   0.246515         38.5657                0               0        0.0746986         44.5175                0               0
                       0.0385536         67.3181                0               0         0.967479        -52.1356                0               0
                       0.0746917         44.5264                0               0         0.246511          38.532                0               0
                        0.967567        -52.1323                0               0        0.0388711         67.1941                0               0
75.315                  0.245605         37.4233                0               0        0.0765702         43.2338                0               0
                       0.0390689          66.433                0               0         0.966917        -53.2907                0               0
                       0.0765655         43.2402                0               0         0.245601         37.3898                0               0
                        0.966977        -53.2876                0               0        0.0392998          66.375                0               0
75.36                   0.244602         36.1976                0               0        0.0781366         41.9029                0               0
                       0.0395614         65.3245                0               0         0.966342        -54.5252                0               0
                       0.0781344         41.9067                0               0         0.244598         36.1644                0               0
                        0.966371        -54.5224                0               0        0.0396851          65.308                0               0
75.405                   0.24351         34.8924                0               0        0.0793869         40.5264                0               0
                       0.0400372         63.9946                0               0         0.965815        -55.8372                0               0
                       0.0793873         40.5278                0               0         0.243507         34.8595                0               0
                        0.965813        -55.8349                0               0        0.0400482         63.9927                0               0
75.45                   0.242327          33.512                0               0         0.080316         39.1059                0               0
                       0.0405005           62.45                0               0         0.965386        -57.2243                0               0
                       0.0803189         39.1051                0               0         0.242324         33.4794                0               0
                        0.965354        -57.2226                0               0        0.0404059         62.4397                0               0
75.495                  0.241042         32.0602                0               0        0.0809244         37.6423                0               0
                       0.0409526         60.7013                0               0         0.965094        -58.6837                0               0
                       0.0809294         37.6398                0               0         0.241039         32.0281                0               0
                        0.965036        -58.6825                0               0        0.0407687         60.6673                0               0
75.54                    0.23964         30.5409                0               0        0.0812176         36.1367                0               0
                       0.0413924         58.7615                0               0         0.964967        -60.2121                0               0
                       0.0812244         36.1328                0               0         0.239638         30.5092                0               0
                        0.964887        -60.2115                0               0        0.0411405          58.697                0               0
75.585                  0.238103         28.9576                0               0        0.0812059         34.5895                0               0
                       0.0418158          56.645                0               0         0.965023        -61.8063                0               0
                        0.081214         34.5849                0               0         0.238101         28.9265                0               0
                        0.964927        -61.8062                0               0        0.0415194         56.5511                0               0
75.63                    0.23641         27.3135                0               0        0.0809035         33.0012                0               0
                       0.0422168         54.3676                0               0         0.965271        -63.4627                0               0
                       0.0809124         32.9962                0               0         0.236408         27.2829                0               0
                        0.965164        -63.4629                0               0        0.0418985         54.2502                0               0
75.675                  0.234537         25.6116                0               0        0.0803276         31.3721                0               0
                       0.0425876         51.9453                0               0         0.965709        -65.1777                0               0
                       0.0803368          31.367                0               0         0.234535         25.5815                0               0
                        0.965597        -65.1781                0               0        0.0422679         51.8131                0               0
75.72                   0.232461         23.8547                0               0        0.0794976         29.7021                0               0
                       0.0429192         49.3941                0               0         0.966329        -66.9476                0               0
                       0.0795066         29.6973                0               0         0.232458         23.8251                0               0
                        0.966219        -66.9481                0               0        0.0426152         49.2563                0               0
75.765                  0.230156         22.0454                0               0        0.0784346         27.9913                0               0
                       0.0432021         46.7301                0               0         0.967116        -68.7687                0               0
                        0.078443          27.987                0               0         0.230153         22.0165                0               0
                        0.967012        -68.7691                0               0        0.0429271         46.5949                0               0
75.81                   0.227601         20.1867                0               0          0.07716         26.2394                0               0
                       0.0434271         43.9691                0               0         0.968051        -70.6376                0               0
                       0.0771675         26.2357                0               0         0.227596         20.1583                0               0
                        0.967957        -70.6377                0               0        0.0431901         43.8425                0               0
75.855                  0.224771         18.2813                0               0        0.0756955          24.446                0               0
                       0.0435853         41.1261                0               0         0.969108        -72.5504                0               0
                       0.0757017          24.443                0               0         0.224766         18.2535                0               0
                        0.969027        -72.5502                0               0        0.0433915         41.0115                0               0
75.9                    0.221648         16.3322                0               0        0.0740619         22.6109                0               0
                       0.0436691         38.2158                0               0         0.970262        -74.5038                0               0
                       0.0740668         22.6086                0               0         0.221642         16.3049                0               0
                        0.970196        -74.5031                0               0        0.0435198         38.1142                0               0
75.945                  0.218213         14.3426                0               0        0.0722793         20.7336                0               0
                       0.0436725          35.252                0               0         0.971483        -76.4942                0               0
                       0.0722829         20.7319                0               0         0.218207         14.3159                0               0
                        0.971434         -76.493                0               0        0.0435651         35.1619                0               0
75.99                   0.214453         12.3159                0               0        0.0703662         18.8136                0               0
                       0.0435907         32.2472                0               0         0.972745        -78.5181                0               0
                       0.0703685         18.8124                0               0         0.214446         12.2896                0               0
                        0.972712        -78.5165                0               0        0.0435199         32.1656                0               0
76.035                  0.210357         10.2555                0               0        0.0683399         16.8504                0               0
                        0.043421         29.2128                0               0         0.974022        -80.5722                0               0
                        0.068341         16.8495                0               0          0.21035         10.2297                0               0
                        0.974003        -80.5701                0               0        0.0433789         29.1356                0               0
76.08                    0.20592         8.16529                0               0        0.0662156         14.8435                0               0
                       0.0431622         26.1588                0               0          0.97529         -82.653                0               0
                       0.0662157         14.8428                0               0         0.205912         8.13984                0               0
                        0.975283        -82.6506                0               0        0.0431393         26.0813                0               0
76.125                  0.201141         6.04894                0               0         0.064007         12.7927                0               0
                       0.0428146         23.0936                0               0         0.976533        -84.7571                0               0
                       0.0640064         12.7919                0               0         0.201132         6.02382                0               0
                        0.976532        -84.7546                0               0        0.0428008          23.011                0               0
76.17                   0.196023         3.91026                0               0        0.0617264         10.6976                0               0
                       0.0423798         20.0239                0               0         0.977739        -86.8813                0               0
                       0.0617252         10.6966                0               0         0.196014         3.88543                0               0
                        0.977738        -86.8787                0               0        0.0423652         19.9319                0               0
76.215                  0.190577         1.75297                0               0        0.0593843         8.55837                0               0
                       0.0418606         16.9547                0               0         0.978904         -89.022                0               0
                       0.0593828         8.55697                0               0         0.190568         1.72837                0               0
                        0.978897        -89.0196                0               0        0.0418363         16.8495                0               0
76.26                   0.184816       -0.419385                0               0        0.0569902         6.37546                0               0
                       0.0412602         13.8899                0               0         0.980033        -91.1758                0               0
                       0.0569886         6.37355                0               0         0.184807       -0.443825                0               0
                        0.980013        -91.1738                0               0        0.0412195         13.7682                0               0
76.305                   0.17876        -2.60349                0               0        0.0545523         4.14998                0               0
                       0.0405823         10.8316                0               0         0.981139        -93.3392                0               0
                       0.0545509         4.14748                0               0         0.178751        -2.62783                0               0
                        0.981101        -93.3378                0               0        0.0405211          10.691                0               0
76.35                   0.172433        -4.79624                0               0        0.0520785         1.88397                0               0
                       0.0398308         7.78163                0               0         0.982246        -95.5086                0               0
                       0.0520774         1.88087                0               0         0.172424        -4.82055                0               0
                        0.982183        -95.5078                0               0        0.0397481         7.62017                0               0
76.395                  0.165859        -6.99468                0               0        0.0495762       -0.419168                0               0
                       0.0390097         4.74109                0               0         0.983382        -97.6801                0               0
                       0.0495754       -0.422794                0               0          0.16585        -7.01902                0               0
                        0.983293        -97.6801                0               0        0.0389078         4.55761                0               0
76.44                   0.159068        -9.19579                0               0        0.0470528        -2.75401                0               0
                       0.0381226         1.71165                0               0         0.984579        -99.8499                0               0
                       0.0470525        -2.75802                0               0         0.159059        -9.22025                0               0
                        0.984464        -99.8505                0               0        0.0380069         1.50577                0               0
76.485                  0.152085        -11.3962                0               0        0.0445164        -5.11221                0               0
                       0.0371728        -1.30382                0               0         0.985862        -102.014                0               0
                       0.0445166        -5.11639                0               0         0.152077        -11.4208                0               0
                        0.985727        -102.015                0               0        0.0370512        -1.53152                0               0
76.53                   0.144937        -13.5915                0               0        0.0419762        -7.48116                0               0
                       0.0361635        -4.30015                0               0         0.987244        -104.168                0               0
                       0.0419767        -7.48524                0               0         0.144928        -13.6164                0               0
                          0.9871        -104.169                0               0        0.0360451        -4.54801                0               0
76.575                  0.137642        -15.7758                0               0        0.0394426        -9.84207                0               0
                       0.0350974        -7.26868                0               0         0.988707        -106.308                0               0
                       0.0394432        -9.84576                0               0         0.137633        -15.8011                0               0
                        0.988568        -106.309                0               0        0.0349915        -7.53404                0               0
76.62                   0.130214        -17.9409                0               0        0.0369278        -12.1673                0               0
                       0.0339765         -10.196                0               0         0.990191        -108.432                0               0
                       0.0369284        -12.1703                0               0         0.130204        -17.9667                0               0
                        0.990073        -108.432                0               0        0.0338908        -10.4757                0               0
76.665                  0.122658        -20.0747                0               0         0.034446        -14.4168                0               0
                       0.0328029        -13.0627                0               0         0.991582        -110.536                0               0
                       0.0344464        -14.4189                0               0         0.122648        -20.1011                0               0
                        0.991498        -110.536                0               0        0.0327419         -13.354                0               0
76.71                   0.114974        -22.1604                0               0        0.0320135        -16.5329                0               0
                       0.0315781        -15.8424                0               0         0.992705        -112.622                0               0
                       0.0320134         -16.534                0               0         0.114964        -22.1876                0               0
                        0.992664         -112.62                0               0        0.0315419        -16.1445                0               0
76.755                  0.107155        -24.1738                0               0        0.0296483        -18.4349                0               0
                       0.0303038        -18.5016                0               0          0.99334        -114.689                0               0
                       0.0296478        -18.4352                0               0         0.107144         -24.202                0               0
                        0.993338        -114.687                0               0         0.030288        -18.8172                0               0
76.8                   0.0991973        -26.0808                0               0        0.0273705        -20.0125                0               0
                       0.0289825        -20.9993                0               0         0.993243        -116.741                0               0
                       0.0273697        -20.0122                0               0        0.0991862        -26.1102                0               0
                        0.993266        -116.738                0               0        0.0289782        -21.3356                0               0
76.845                 0.0911028        -27.8332                0               0        0.0252024        -21.1198                0               0
                       0.0276183         -23.288                0               0         0.992187        -118.779                0               0
                       0.0252016        -21.1193                0               0        0.0910915        -27.8641                0               0
                        0.992212        -118.776                0               0        0.0276138        -23.6569                0               0
76.89                  0.0828892        -29.3634                0               0          0.02317        -21.5731                0               0
                       0.0262184        -25.3156                0               0         0.990002        -120.805                0               0
                       0.0231695        -21.5731                0               0        0.0828778        -29.3962                0               0
                        0.990001        -120.802                0               0        0.0262008        -25.7317                0               0
76.935                  0.074596        -30.5773                0               0        0.0213058        -21.1573                0               0
                        0.024794        -27.0266                0               0         0.986608        -122.816                0               0
                       0.0213063        -21.1582                0               0        0.0745844        -30.6126                0               0
                        0.986559        -122.814                0               0        0.0247511        -27.5043                0               0
76.98                  0.0662882        -31.3442                0               0        0.0196534        -19.6483                0               0
                       0.0233614        -28.3648                0               0         0.982026        -124.809                0               0
                       0.0196554        -19.6504                0               0        0.0662762        -31.3828                0               0
                        0.981916        -124.807                0               0        0.0232838        -28.9141                0               0
77.025                 0.0580586        -31.4812                0               0        0.0182713        -16.8628                0               0
                       0.0219419        -29.2763                0               0         0.976368         -126.78                0               0
                       0.0182752        -16.8667                0               0        0.0580457        -31.5237                0               0
                          0.9762        -126.778                0               0        0.0218237        -29.8992                0               0
77.07                  0.0500271        -30.7255                0               0        0.0172323        -12.7452                0               0
                       0.0205608        -29.7135                0               0         0.969816        -128.722                0               0
                       0.0172382        -12.7514                0               0        0.0500126         -30.773                0               0
                          0.9696         -128.72                0               0        0.0204006        -30.4016                0               0
77.115                 0.0423431        -28.6871                0               0        0.0166123        -7.47159                0               0
                       0.0192456        -29.6405                0               0         0.962581        -130.633                0               0
                       0.0166202        -7.48089                0               0        0.0423261        -28.7404                0               0
                        0.962336        -130.629                0               0        0.0190464        -30.3754                0               0
77.16                  0.0351988        -24.7668                0               0        0.0164679        -1.50156                0               0
                       0.0180235        -29.0401                0               0         0.954879        -132.508                0               0
                       0.0164771        -1.51433                0               0        0.0351782        -24.8262                0               0
                        0.954625        -132.503                0               0        0.0177923        -29.7962                0               0
77.205                 0.0288646        -18.0507                0               0          0.01681         4.51476                0               0