! TOUCHSTONE file generated by CST MICROWAVE STUDIO
! Date and time: Mon Jun 21 17:07:12 2021
! Project name: HIPS_d_sweep.cst
! Parameters = {a=0.735; b=0.393; d=22.7839; fmax=120; fmin=75; phi=0; theta=0}
! Header version: 2018
! Port assignment regex: !\s*Touchstone port\s*([0-9]+)\s*=\s*(CST MWS port|CST DS port)\s*([0-9]+|Zmin|Zmax)\s*\(\"(.*)\"\)(\s*mode\s*([0-9]+))?.*
! Touchstone port assignment:
! Touchstone port 1 = CST MWS port Zmin ("") mode 1
! Touchstone port 2 = CST MWS port Zmin ("") mode 2
! Touchstone port 3 = CST MWS port Zmax ("") mode 1
! Touchstone port 4 = CST MWS port Zmax ("") mode 2
! S-Parameters are not renormalized. Unphysical impedance of 0 will be written to the file.
# GHz S MA R 0
75                      0.188555         83.4241                0               0        0.0798377         83.8049                0               0
                       0.0157826         159.357                0               0         0.978697        -6.72121                0               0
                        0.079838         83.8056                0               0         0.188487         83.3445                0               0
                        0.978685        -6.72394                0               0        0.0159031         159.384                0               0
75.045                  0.189962         82.7803                0               0        0.0828078         82.9964                0               0
                        0.016555         159.297                0               0         0.979247        -7.38784                0               0
                       0.0828064         82.9976                0               0         0.189893         82.7014                0               0
                        0.979234        -7.39056                0               0        0.0166773         159.317                0               0
75.09                   0.191483         82.0441                0               0        0.0857137         82.1726                0               0
                       0.0173094         158.914                0               0         0.979224        -8.13567                0               0
                       0.0857113          82.174                0               0         0.191413         81.9659                0               0
                        0.979211        -8.13838                0               0        0.0174325          158.93                0               0
75.135                  0.193138         81.2173                0               0        0.0885003         81.3258                0               0
                       0.0180425          158.19                0               0         0.978747        -8.96722                0               0
                       0.0884975         81.3272                0               0         0.193067           81.14                0               0
                        0.978734        -8.96992                0               0        0.0181654         158.203                0               0
75.18                    0.19494         80.3027                0               0        0.0911089         80.4472                0               0
                       0.0187531         157.107                0               0         0.977929        -9.88374                0               0
                       0.0911063         80.4486                0               0          0.19487         80.2265                0               0
                        0.977916        -9.88643                0               0         0.018875         157.118                0               0
75.225                  0.196902         79.3037                0               0        0.0934801         79.5279                0               0
                       0.0194425          155.65                0               0          0.97688        -10.8853                0               0
                       0.0934781         79.5291                0               0         0.196831         79.2288                0               0
                        0.976867        -10.8879                0               0        0.0195627          155.66                0               0
75.27                   0.199028         78.2239                0               0        0.0955572          78.559                0               0
                       0.0201141         153.809                0               0         0.975699        -11.9707                0               0
                       0.0955562           78.56                0               0         0.198958         78.1504                0               0
                        0.975686        -11.9734                0               0        0.0202321         153.819                0               0
75.315                  0.201319         77.0671                0               0        0.0972904         77.5326                0               0
                       0.0207734         151.582                0               0         0.974474        -13.1383                0               0
                       0.0972906         77.5333                0               0          0.20125         76.9951                0               0
                         0.97446        -13.1409                0               0         0.020889         151.594                0               0
75.36                   0.203773         75.8368                0               0        0.0986398         76.4423                0               0
                       0.0214277         148.975                0               0         0.973276        -14.3851                0               0
                       0.0986413         76.4427                0               0         0.203704         75.7663                0               0
                        0.973263        -14.3878                0               0        0.0215406         148.991                0               0
75.405                  0.206378         74.5363                0               0        0.0995787         75.2842                0               0
                       0.0220849         146.005                0               0         0.972165        -15.7081                0               0
                       0.0995812         75.2844                0               0          0.20631         74.4675                0               0
                        0.972152        -15.7107                0               0        0.0221953         146.025                0               0
75.45                   0.209122         73.1685                0               0         0.100095         74.0568                0               0
                       0.0227533         142.696                0               0         0.971184        -17.1036                0               0
                        0.100098         74.0568                0               0         0.209054         73.1014                0               0
                        0.971171        -17.1062                0               0        0.0228612         142.723                0               0
75.495                  0.211984         71.7359                0               0         0.100192         72.7614                0               0
                       0.0234402         139.084                0               0         0.970363        -18.5676                0               0
                        0.100195         72.7613                0               0         0.211917         71.6704                0               0
                        0.970349        -18.5702                0               0        0.0235458         139.118                0               0
75.54                   0.214943         70.2406                0               0        0.0998862         71.4017                0               0
                       0.0241513         135.209                0               0         0.969716        -20.0962                0               0
                       0.0998899         71.4016                0               0         0.214876         70.1768                0               0
                        0.969703        -20.0988                0               0        0.0242547         135.252                0               0
75.585                  0.217969         68.6845                0               0        0.0992085         69.9836                0               0
                       0.0248901          131.12                0               0          0.96925        -21.6853                0               0
                       0.0992117         69.9836                0               0         0.217903         68.6224                0               0
                        0.969236        -21.6879                0               0        0.0249913         131.172                0               0
75.63                   0.221033         67.0694                0               0        0.0981977         68.5147                0               0
                       0.0256574         126.866                0               0         0.968956        -23.3308                0               0
                       0.0982002         68.5149                0               0         0.220967         67.0089                0               0
                        0.968942        -23.3334                0               0        0.0257566         126.928                0               0
75.675                  0.224098          65.397                0               0        0.0968992         67.0031                0               0
                       0.0264515         122.497                0               0         0.968819        -25.0289                0               0
                       0.0969008         67.0035                0               0         0.224033         65.3382                0               0
                        0.968805        -25.0314                0               0        0.0265486         122.569                0               0
75.72                   0.227127         63.6695                0               0        0.0953614         65.4573                0               0
                       0.0272682         118.061                0               0         0.968815        -26.7756                0               0
                       0.0953619         65.4581                0               0         0.227062         63.6123                0               0
                        0.968801        -26.7781                0               0         0.027363         118.141                0               0
75.765                  0.230081         61.8892                0               0        0.0936324         63.8853                0               0
                       0.0281013         113.602                0               0         0.968913        -28.5674                0               0
                       0.0936319         63.8866                0               0         0.230016         61.8337                0               0
                        0.968898        -28.5699                0               0        0.0281937         113.689                0               0
75.81                   0.232916         60.0593                0               0         0.091758         62.2944                0               0
                       0.0289436         109.156                0               0         0.969077        -30.4009                0               0
                       0.0917566         62.2961                0               0         0.232852         60.0055                0               0
                        0.969063        -30.4034                0               0        0.0290333          109.25                0               0
75.855                  0.235593         58.1835                0               0        0.0897793         60.6905                0               0
                       0.0297872         104.756                0               0         0.969269        -32.2728                0               0
                       0.0897772         60.6927                0               0         0.235529         58.1314                0               0
                        0.969255        -32.2753                0               0        0.0298741         104.855                0               0
75.9                     0.23807         56.2662                0               0        0.0877319         59.0785                0               0
                       0.0306245         100.426                0               0         0.969448        -34.1801                0               0
                       0.0877294          59.081                0               0         0.238007          56.216                0               0
                        0.969433        -34.1825                0               0        0.0307081         100.528                0               0
75.945                  0.240311          54.313                0               0        0.0856452         57.4617                0               0
                       0.0314481         96.1837                0               0         0.969571        -36.1198                0               0
                       0.0856425         57.4645                0               0         0.240248         54.2645                0               0
                        0.969556        -36.1222                0               0        0.0315281          96.288                0               0
75.99                   0.242282         52.3296                0               0        0.0835418         55.8424                0               0
                       0.0322519         92.0417                0               0         0.969598        -38.0893                0               0
                       0.0835391         55.8454                0               0          0.24222         52.2831                0               0
                        0.969583        -38.0918                0               0         0.032328         92.1464                0               0
76.035                  0.243957         50.3227                0               0        0.0814382         54.2219                0               0
                       0.0330306         88.0059                0               0         0.969494        -40.0861                0               0
                       0.0814358         54.2249                0               0         0.243897         50.2781                0               0
                        0.969479        -40.0886                0               0        0.0331023         88.1097                0               0
76.08                   0.245319         48.2988                0               0        0.0793447         52.6005                0               0
                       0.0337798         84.0773                0               0          0.96923        -42.1079                0               0
                       0.0793427         52.6035                0               0          0.24526         48.2561                0               0
                        0.969215        -42.1103                0               0        0.0338469         84.1792                0               0
76.125                  0.246357          46.264                0               0         0.077266         50.9784                0               0
                        0.034496         80.2528                0               0         0.968788        -44.1521                0               0
                       0.0772645         50.9812                0               0         0.246301         46.2233                0               0
                        0.968774        -44.1546                0               0        0.0345583          80.352                0               0
76.17                   0.247073         44.2235                0               0        0.0752017         49.3552                0               0
                       0.0351763         76.5255                0               0         0.968171        -46.2165                0               0
                       0.0752009         49.3576                0               0         0.247019         44.1849                0               0
                        0.968157        -46.2189                0               0        0.0352335         76.6214                0               0
76.215                  0.247474          42.181                0               0        0.0731468         47.7308                0               0
                       0.0358179         72.8855                0               0         0.967407         -48.298                0               0
                       0.0731466         47.7327                0               0         0.247423         42.1444                0               0
                        0.967393        -48.3004                0               0          0.03587         72.9777                0               0
76.26                   0.247575         40.1381                0               0        0.0710919          46.105                0               0
                       0.0364181         69.3205                0               0         0.966563        -50.3928                0               0
                       0.0710923         46.1064                0               0         0.247527         40.1034                0               0
                         0.96655        -50.3952                0               0        0.0364651         69.4088                0               0
76.305                  0.247394         38.0936                0               0        0.0690237         44.4778                0               0
                       0.0369742         65.8162                0               0         0.965756        -52.4951                0               0
                       0.0690246         44.4787                0               0         0.247349         38.0609                0               0
                        0.965744        -52.4974                0               0        0.0370162         65.9007                0               0
76.35                   0.246951         36.0442                0               0        0.0669254         42.8483                0               0
                       0.0374832         62.3574                0               0         0.965162        -54.5959                0               0
                       0.0669268         42.8488                0               0         0.246909         36.0134                0               0
                        0.965152        -54.5982                0               0        0.0375208         62.4379                0               0
76.395                   0.24626         33.9844                0               0        0.0647775         41.2135                0               0
                       0.0379429         58.9278                0               0         0.965016        -56.6824                0               0
                       0.0647791         41.2137                0               0         0.246221         33.9556                0               0
                        0.965007        -56.6848                0               0        0.0379767         59.0048                0               0
76.44                   0.245336         31.9081                0               0        0.0625592         39.5641                0               0
                        0.038353         55.5121                0               0         0.965581        -58.7389                0               0
                       0.0625609         39.5644                0               0         0.245299         31.8814                0               0
                        0.965572        -58.7412                0               0        0.0383837         55.5859                0               0
76.485                   0.24419         29.8105                0               0        0.0602542         37.8783                0               0
                       0.0387166         52.0976                0               0         0.967087        -60.7516                0               0
                       0.0602555         37.8792                0               0         0.244154         29.7861                0               0
                        0.967077         -60.754                0               0        0.0387451          52.169                0               0
76.53                   0.242835         27.6919                0               0        0.0578628         36.1119                0               0
                       0.0390436         48.6807                0               0         0.969615        -62.7193                0               0
                       0.0578631         36.1137                0               0         0.242799         27.6696                0               0
                        0.969604        -62.7217                0               0        0.0390707          48.751                0               0
76.575                  0.241283         25.5613                0               0        0.0554308         34.1936                0               0
                       0.0393516         45.2782                0               0          0.97294        -64.6616                0               0
                       0.0554292         34.1965                0               0         0.241248         25.5414                0               0
                        0.972928         -64.664                0               0        0.0393773          45.349                0               0
76.62                    0.23953         23.4419                0               0        0.0530893         32.0581                0               0
                        0.039658         41.9454                0               0         0.976402        -66.6129                0               0
                       0.0530851         32.0609                0               0         0.239495         23.4241                0               0
                        0.976389        -66.6154                0               0        0.0396811         42.0177                0               0
76.665                  0.237519         21.3683                0               0        0.0510503         29.7613                0               0
                       0.0399548         38.7819                0               0         0.979035        -68.5982                0               0
                       0.0510443         29.7621                0               0         0.237486         21.3526                0               0
                        0.979023        -68.6006                0               0         0.039973          38.854                0               0
76.71                   0.235117         19.3729                0               0        0.0494559         27.5975                0               0
                       0.0401777         35.8864                0               0         0.980032        -70.6136                0               0
                       0.0494506         27.5957                0               0         0.235086         19.3593                0               0
                        0.980021         -70.616                0               0        0.0401902         35.9533                0               0
76.755                   0.23216         17.4662                0               0        0.0481965         25.9438                0               0
                       0.0402262         33.2708                0               0         0.979122        -72.6361                0               0
                       0.0481937         25.9414                0               0         0.232134         17.4549                0               0
                        0.979113        -72.6385                0               0         0.040235         33.3278                0               0
76.8                    0.228559         15.6336                0               0        0.0470209         24.9454                0               0
                       0.0400398         30.8506                0               0         0.976519        -74.6432                0               0
                       0.0470203         24.9445                0               0         0.228537          15.625                0               0
                        0.976512        -74.6457                0               0        0.0400482         30.8973                0               0
76.845                  0.224346         13.8549                0               0        0.0457822           24.51                0               0
                       0.0396341         28.5343                0               0         0.972631        -76.6224                0               0
                       0.0457827         24.5112                0               0          0.22433         13.8489                0               0
                        0.972625        -76.6249                0               0        0.0396433          28.573                0               0
76.89                   0.219632         12.1199                0               0        0.0444826         24.4976                0               0
                       0.0390634         26.2848                0               0          0.96785        -78.5697                0               0
                       0.0444836         24.5003                0               0          0.21962         12.1167                0               0
                        0.967845        -78.5722                0               0         0.039073         26.3177                0               0
76.935                   0.21454         10.4309                0               0        0.0431923         24.8091                0               0
                       0.0383815         24.1098                0               0         0.962474        -80.4851                0               0
                       0.0431935         24.8126                0               0         0.214533         10.4304                0               0
                         0.96247        -80.4877                0               0        0.0383906         24.1379                0               0
76.98                   0.209178         8.79609                0               0        0.0419877         25.3811                0               0
                       0.0376295         22.0333                0               0         0.956712        -82.3701                0               0
                        0.041989         25.3846                0               0         0.209175         8.79814                0               0
                        0.956709        -82.3727                0               0         0.037637         22.0569                0               0
77.025                   0.20363         7.22451                0               0        0.0409296         26.1615                0               0
                        0.036837         20.0787                0               0         0.950707        -84.2262                0               0
                        0.040931         26.1647                0               0         0.203632         7.22921                0               0
                        0.950704        -84.2289                0               0        0.0368423         20.0977                0               0
77.07                   0.197961         5.72375                0               0        0.0400588          27.096                0               0
                       0.0360267         18.2621                0               0         0.944555        -86.0546                0               0
                       0.0400601         27.0984                0               0         0.197969         5.73114                0               0
                        0.944552        -86.0573                0               0        0.0360295         18.2764                0               0
77.115                  0.192225         4.29905                0               0        0.0393969         28.1236                0               0
                       0.0352164         16.5915                0               0         0.938327        -87.8563                0               0
                       0.0393981         28.1251                0               0         0.192238         4.30918                0               0
                        0.938324         -87.859                0               0        0.0352167         16.6011                0               0
77.16                   0.186463         2.95349                0               0        0.0389497         29.1801                0               0
                       0.0344204         15.0681                0               0         0.932074        -89.6318                0               0
                       0.0389506         29.1808                0               0         0.186481         2.96644                0               0
                        0.932072        -89.6345                0               0        0.0344181         15.0727                0               0
77.205                  0.180708         1.68842                0               0        0.0387099         30.2036                0               0