! TOUCHSTONE file generated by CST MICROWAVE STUDIO
! Date and time: Mon Jun 21 17:06:24 2021
! Project name: HIPS_d_sweep.cst
! Parameters = {a=0.735; b=0.393; d=16.7035; fmax=120; fmin=75; phi=0; theta=0}
! Header version: 2018
! Port assignment regex: !\s*Touchstone port\s*([0-9]+)\s*=\s*(CST MWS port|CST DS port)\s*([0-9]+|Zmin|Zmax)\s*\(\"(.*)\"\)(\s*mode\s*([0-9]+))?.*
! Touchstone port assignment:
! Touchstone port 1 = CST MWS port Zmin ("") mode 1
! Touchstone port 2 = CST MWS port Zmin ("") mode 2
! Touchstone port 3 = CST MWS port Zmax ("") mode 1
! Touchstone port 4 = CST MWS port Zmax ("") mode 2
! S-Parameters are not renormalized. Unphysical impedance of 0 will be written to the file.
# GHz S MA R 0
75                      0.163033         66.8284                0               0          0.44964         71.9956                0               0
                       0.0897087        -175.862                0               0         0.873611        -17.0215                0               0
                        0.449639         71.9957                0               0         0.163098         66.8599                0               0
                         0.87361        -17.0216                0               0        0.0895905        -175.804                0               0
75.045                  0.163841         66.4666                0               0         0.451825         71.1935                0               0
                       0.0903184        -177.382                0               0          0.87533        -17.7368                0               0
                        0.451817         71.1924                0               0         0.163909         66.4978                0               0
                        0.875331        -17.7369                0               0         0.090197        -177.325                0               0
75.09                   0.164634         66.0751                0               0         0.453903         70.3967                0               0
                       0.0908928         -178.93                0               0         0.876719        -18.4592                0               0
                        0.453891         70.3946                0               0         0.164703         66.1058                0               0
                        0.876721        -18.4594                0               0        0.0907685        -178.876                0               0
75.135                  0.165414         65.6501                0               0         0.455837         69.6048                0               0
                       0.0914247         179.487                0               0         0.877729        -19.1925                0               0
                        0.455823         69.6019                0               0         0.165484         65.6804                0               0
                        0.877733        -19.1927                0               0        0.0912976          179.54                0               0
75.18                   0.166186         65.1882                0               0         0.457588         68.8168                0               0
                       0.0919065         177.865                0               0         0.878319        -19.9412                0               0
                        0.457573         68.8131                0               0         0.166257          65.218                0               0
                        0.878324        -19.9414                0               0         0.091777         177.915                0               0
75.225                  0.166957         64.6859                0               0         0.459112         68.0304                0               0
                       0.0923316         176.196                0               0         0.878456        -20.7108                0               0
                        0.459098         68.0263                0               0          0.16703         64.7152                0               0
                        0.878461         -20.711                0               0        0.0921997         176.244                0               0
75.27                   0.167738         64.1403                0               0         0.460363         67.2424                0               0
                       0.0926942         174.471                0               0         0.878123        -21.5077                0               0
                        0.460351         67.2381                0               0         0.167812         64.1691                0               0
                        0.878129        -21.5079                0               0          0.09256         174.518                0               0
75.315                  0.168539         63.5493                0               0         0.461298         66.4482                0               0
                       0.0929902         172.683                0               0         0.877323         -22.339                0               0
                        0.461289         66.4439                0               0         0.168613         63.5775                0               0
                        0.877329        -22.3391                0               0        0.0928537         172.729                0               0
75.36                   0.169372         62.9116                0               0          0.46188         65.6415                0               0
                       0.0932179         170.821                0               0         0.876084        -23.2118                0               0
                        0.461874         65.6376                0               0         0.169448         62.9391                0               0
                        0.876089        -23.2119                0               0        0.0930792         170.865                0               0
75.405                  0.170253         62.2268                0               0          0.46208          64.815                0               0
                        0.093379         168.873                0               0          0.87446        -24.1334                0               0
                        0.462077         64.8116                0               0         0.170329         62.2537                0               0
                        0.874464        -24.1334                0               0         0.093238         168.916                0               0
75.45                   0.171192         61.4962                0               0         0.461885         63.9602                0               0
                        0.093479         166.829                0               0         0.872534          -25.11                0               0
                        0.461885         63.9576                0               0         0.171269         61.5223                0               0
                        0.872537        -25.1101                0               0        0.0933356          166.87                0               0
75.495                  0.172202         60.7219                0               0           0.4613         63.0681                0               0
                       0.0935278         164.679                0               0         0.870409        -26.1467                0               0
                        0.461302         63.0664                0               0          0.17228         60.7472                0               0
                        0.870411        -26.1468                0               0        0.0933816         164.718                0               0
75.54                   0.173292         59.9071                0               0         0.460352         62.1299                0               0
                       0.0935396         162.411                0               0         0.868208        -27.2467                0               0
                        0.460353         62.1291                0               0         0.173371         59.9316                0               0
                        0.868208        -27.2467                0               0        0.0933905         162.449                0               0
75.585                  0.174467         59.0558                0               0         0.459084         61.1379                0               0
                       0.0935332          160.02                0               0         0.866057        -28.4108                0               0
                        0.459084          61.138                0               0         0.174547         59.0793                0               0
                        0.866056        -28.4108                0               0        0.0933808         160.056                0               0
75.63                   0.175728         58.1723                0               0         0.457558         60.0862                0               0
                       0.0935306         157.501                0               0          0.86408        -29.6377                0               0
                        0.457556         60.0871                0               0         0.175808         58.1948                0               0
                        0.864078        -29.6378                0               0        0.0933745         157.536                0               0
75.675                  0.177071         57.2608                0               0         0.455845         58.9712                0               0
                       0.0935556         154.855                0               0         0.862385        -30.9239                0               0
                        0.455841         58.9728                0               0         0.177153         57.2823                0               0
                        0.862383         -30.924                0               0        0.0933957         154.886                0               0
75.72                   0.178491         56.3252                0               0         0.454021         57.7925                0               0
                       0.0936324         152.084                0               0         0.861058        -32.2642                0               0
                        0.454013         57.7944                0               0         0.178573         56.3457                0               0
                        0.861055        -32.2643                0               0        0.0934685         152.113                0               0
75.765                  0.179974          55.369                0               0         0.452155         56.5519                0               0
                       0.0937833         149.197                0               0         0.860156        -33.6521                0               0
                        0.452144         56.5541                0               0         0.180057         55.3884                0               0
                        0.860153        -33.6522                0               0        0.0936152         149.224                0               0
75.81                   0.181508         54.3946                0               0         0.450306         55.2538                0               0
                       0.0940267         146.208                0               0         0.859709        -35.0806                0               0
                        0.450294         55.2561                0               0         0.181593         54.4128                0               0
                        0.859705        -35.0807                0               0        0.0938543         146.231                0               0
75.855                  0.183076         53.4038                0               0         0.448522         53.9043                0               0
                       0.0943757         143.132                0               0         0.859716        -36.5427                0               0
                        0.448508         53.9065                0               0         0.183162         53.4208                0               0
                        0.859712        -36.5428                0               0        0.0941991         143.151                0               0
75.9                    0.184661         52.3975                0               0         0.446831         52.5106                0               0
                       0.0948368         139.987                0               0         0.860153        -38.0319                0               0
                        0.446817         52.5127                0               0         0.184748         52.4134                0               0
                         0.86015        -38.0321                0               0        0.0946563         140.001                0               0
75.945                  0.186243         51.3762                0               0         0.445249         51.0804                0               0
                       0.0954101         136.791                0               0          0.86098        -39.5424                0               0
                        0.445236         51.0821                0               0         0.186331         51.3909                0               0
                        0.860976        -39.5425                0               0        0.0952258         136.801                0               0
75.99                   0.187803         50.3398                0               0         0.443778          49.621                0               0
                       0.0960891         133.562                0               0          0.86214        -41.0691                0               0
                        0.443765         49.6225                0               0         0.187893         50.3532                0               0
                        0.862136        -41.0692                0               0        0.0959013         133.567                0               0
76.035                  0.189324          49.288                0               0         0.442408         48.1396                0               0
                       0.0968619         130.315                0               0         0.863568        -42.6081                0               0
                        0.442398         48.1408                0               0         0.189414         49.3001                0               0
                        0.863565        -42.6082                0               0        0.0966709         130.315                0               0
76.08                   0.190784         48.2201                0               0         0.441124         46.6425                0               0
                       0.0977124         127.066                0               0         0.865196        -44.1562                0               0
                        0.441116         46.6435                0               0         0.190877          48.231                0               0
                        0.865193        -44.1562                0               0        0.0975185         127.061                0               0
76.125                  0.192168         47.1359                0               0         0.439904         45.1352                0               0
                       0.0986216         123.826                0               0         0.866954        -45.7108                0               0
                        0.439899          45.136                0               0         0.192261         47.1455                0               0
                         0.86695        -45.7109                0               0        0.0984251         123.816                0               0
76.17                   0.193455          46.035                0               0         0.438727         43.6227                0               0
                       0.0995689         120.603                0               0         0.868773        -47.2703                0               0
                        0.438723         43.6233                0               0          0.19355         46.0434                0               0
                        0.868769        -47.2703                0               0          0.09937         120.589                0               0
76.215                   0.19463         44.9176                0               0         0.437567          42.109                0               0
                        0.100533         117.406                0               0         0.870587         -48.833                0               0
                        0.437565         42.1093                0               0         0.194726         44.9246                0               0
                        0.870583        -48.8331                0               0         0.100332         117.386                0               0
76.26                   0.195676         43.7839                0               0         0.436403         40.5975                0               0
                        0.101494         114.238                0               0         0.872335         -50.398                0               0
                        0.436403         40.5978                0               0         0.195773         43.7896                0               0
                        0.872331         -50.398                0               0         0.101291         114.214                0               0
76.305                  0.196578         42.6348                0               0         0.435214         39.0914                0               0
                        0.102433         111.105                0               0         0.873961        -51.9641                0               0
                        0.435216         39.0915                0               0         0.196676         42.6392                0               0
                        0.873957        -51.9641                0               0         0.102229         111.075                0               0
76.35                   0.197321         41.4717                0               0         0.433984         37.5931                0               0
                        0.103332         108.007                0               0         0.875414        -53.5305                0               0
                        0.433986         37.5932                0               0         0.197421         41.4748                0               0
                         0.87541        -53.5305                0               0         0.103126         107.973                0               0
76.395                  0.197893         40.2963                0               0         0.432696         36.1049                0               0
                        0.104176         104.947                0               0         0.876648        -55.0964                0               0
                        0.432699          36.105                0               0         0.197994          40.298                0               0
                        0.876644        -55.0964                0               0         0.103969         104.909                0               0
76.44                   0.198284         39.1109                0               0          0.43134         34.6289                0               0
                        0.104952         101.927                0               0         0.877625        -56.6606                0               0
                        0.431343         34.6289                0               0         0.198386         39.1112                0               0
                        0.877621        -56.6606                0               0         0.104744         101.884                0               0
76.485                  0.198483         37.9181                0               0         0.429906         33.1668                0               0
                         0.10565          98.948                0               0         0.878309        -58.2221                0               0
                         0.42991         33.1668                0               0         0.198586         37.9172                0               0
                        0.878305        -58.2222                0               0         0.105441         98.9006                0               0
76.53                   0.198484         36.7213                0               0         0.428391         31.7202                0               0
                        0.106262         96.0105                0               0         0.878675        -59.7798                0               0
                        0.428394         31.7202                0               0         0.198587         36.7189                0               0
                        0.878671        -59.7798                0               0         0.106052         95.9588                0               0
76.575                  0.198281         35.5237                0               0         0.426792         30.2907                0               0
                        0.106781         93.1159                0               0           0.8787        -61.3322                0               0
                        0.426794         30.2908                0               0         0.198385           35.52                0               0
                        0.878696        -61.3322                0               0          0.10657         93.0599                0               0
76.62                   0.197872         34.3293                0               0          0.42511         28.8795                0               0
                        0.107204         90.2653                0               0          0.87837        -62.8779                0               0
                        0.425111         28.8797                0               0         0.197977         34.3241                0               0
                        0.878365         -62.878                0               0         0.106993         90.2051                0               0
76.665                  0.197258         33.1419                0               0         0.423347         27.4879                0               0
                        0.107529         87.4598                0               0         0.877674        -64.4153                0               0
                        0.423347         27.4882                0               0         0.197363         33.1354                0               0
                        0.877669        -64.4154                0               0         0.107318         87.3955                0               0
76.71                   0.196442         31.9658                0               0         0.421509         26.1169                0               0
                        0.107757         84.7005                0               0         0.876611        -65.9428                0               0
                        0.421508         26.1173                0               0         0.196546         31.9578                0               0
                        0.876606        -65.9429                0               0         0.107546         84.6321                0               0
76.755                  0.195427         30.8051                0               0         0.419605         24.7675                0               0
                        0.107889         81.9884                0               0         0.875183        -67.4586                0               0
                        0.419602          24.768                0               0         0.195532         30.7956                0               0
                        0.875177        -67.4587                0               0         0.107677         81.9161                0               0
76.8                    0.194223         29.6638                0               0         0.417642         23.4404                0               0
                        0.107928         79.3247                0               0         0.873398         -68.961                0               0
                        0.417639         23.4411                0               0         0.194328         29.6528                0               0
                        0.873392        -68.9612                0               0         0.107717         79.2485                0               0
76.845                   0.19284         28.5459                0               0         0.415632         22.1361                0               0
                        0.107878         76.7101                0               0         0.871272        -70.4485                0               0
                        0.415628          22.137                0               0         0.192943         28.5334                0               0
                        0.871266        -70.4486                0               0         0.107668         76.6301                0               0
76.89                   0.191288         27.4551                0               0         0.413587         20.8552                0               0
                        0.107746         74.1456                0               0         0.868822        -71.9192                0               0
                        0.413582         20.8562                0               0         0.191391         27.4411                0               0
                        0.868816        -71.9194                0               0         0.107536         74.0618                0               0
76.935                  0.189582         26.3947                0               0         0.411519         19.5977                0               0
                        0.107536         71.6316                0               0         0.866074        -73.3719                0               0
                        0.411513         19.5989                0               0         0.189684         26.3791                0               0
                        0.866068         -73.372                0               0         0.107327         71.5441                0               0
76.98                   0.187736         25.3678                0               0         0.409441         18.3636                0               0
                        0.107257         69.1685                0               0         0.863054         -74.805                0               0
                        0.409435          18.365                0               0         0.187837         25.3506                0               0
                        0.863048        -74.8052                0               0         0.107048         69.0774                0               0
77.025                  0.185766         24.3768                0               0         0.407366         17.1528                0               0
                        0.106914         66.7566                0               0         0.859794        -76.2175                0               0
                         0.40736         17.1543                0               0         0.185866          24.358                0               0
                        0.859787        -76.2177                0               0         0.106707         66.6619                0               0
77.07                   0.183689          23.424                0               0         0.405308         15.9649                0               0
                        0.106515         64.3957                0               0         0.856327        -77.6085                0               0
                        0.405302         15.9665                0               0         0.183787         23.4036                0               0
                         0.85632        -77.6087                0               0          0.10631         64.2975                0               0
77.115                  0.181519         22.5109                0               0         0.403279         14.7991                0               0
                        0.106068         62.0855                0               0         0.852687        -78.9772                0               0
                        0.403274         14.8008                0               0         0.181616         22.4888                0               0
                         0.85268        -78.9774                0               0         0.105864         61.9839                0               0
77.16                   0.179273         21.6386                0               0         0.401293         13.6547                0               0
                        0.105581         59.8255                0               0         0.848912        -80.3231                0               0
                        0.401287         13.6564                0               0         0.179369         21.6149                0               0
                        0.848905        -80.3233                0               0         0.105378         59.7205                0               0
77.205                  0.176967          20.808                0               0          0.39936         12.5307                0               0