! TOUCHSTONE file generated by CST MICROWAVE STUDIO
! Date and time: Mon Jun 21 17:06:33 2021
! Project name: HIPS_d_sweep.cst
! Parameters = {a=0.735; b=0.393; d=17.6583; fmax=120; fmin=75; phi=0; theta=0}
! Header version: 2018
! Port assignment regex: !\s*Touchstone port\s*([0-9]+)\s*=\s*(CST MWS port|CST DS port)\s*([0-9]+|Zmin|Zmax)\s*\(\"(.*)\"\)(\s*mode\s*([0-9]+))?.*
! Touchstone port assignment:
! Touchstone port 1 = CST MWS port Zmin ("") mode 1
! Touchstone port 2 = CST MWS port Zmin ("") mode 2
! Touchstone port 3 = CST MWS port Zmax ("") mode 1
! Touchstone port 4 = CST MWS port Zmax ("") mode 2
! S-Parameters are not renormalized. Unphysical impedance of 0 will be written to the file.
# GHz S MA R 0
75                     0.0659241         11.4945                0               0         0.418377        -37.0156                0               0
                        0.109372        -27.2064                0               0         0.899253        -127.871                0               0
                        0.418377        -37.0157                0               0        0.0660266         11.7011                0               0
                        0.899251         -127.87                0               0         0.109285        -27.1393                0               0
75.045                  0.065177         12.2217                0               0         0.421313        -37.5989                0               0
                        0.109609        -28.1575                0               0         0.898769        -128.379                0               0
                        0.421313         -37.599                0               0        0.0652852         12.4289                0               0
                        0.898767        -128.378                0               0          0.10952        -28.0909                0               0
75.09                  0.0643006          13.085                0               0         0.423878        -38.2484                0               0
                        0.109714        -29.2085                0               0         0.898047        -128.967                0               0
                        0.423878        -38.2485                0               0        0.0644153         13.2927                0               0
                        0.898045        -128.966                0               0         0.109623        -29.1425                0               0
75.135                 0.0633036         14.0896                0               0         0.426093        -38.9659                0               0
                        0.109696        -30.3667                0               0         0.897185        -129.634                0               0
                        0.426093         -38.966                0               0        0.0634256         14.2975                0               0
                        0.897183        -129.633                0               0         0.109603        -30.3015                0               0
75.18                  0.0621982         15.2439                0               0         0.427976        -39.7522                0               0
                        0.109565        -31.6382                0               0         0.896269        -130.377                0               0
                        0.427976        -39.7523                0               0        0.0623282         15.4516                0               0
                        0.896267        -130.376                0               0          0.10947        -31.5739                0               0
75.225                 0.0609999         16.5597                0               0         0.429548        -40.6076                0               0
                        0.109333        -33.0279                0               0         0.895369        -131.193                0               0
                        0.429548        -40.6077                0               0        0.0611387         16.7667                0               0
                        0.895367        -131.192                0               0         0.109236        -32.9645                0               0
75.27                  0.0597276          18.052                0               0         0.430827        -41.5318                0               0
                         0.10901        -34.5395                0               0         0.894542        -132.078                0               0
                        0.430827        -41.5318                0               0         0.059876         18.2573                0               0
                         0.89454        -132.077                0               0         0.108911        -34.4771                0               0
75.315                 0.0584039         19.7383                0               0         0.431831        -42.5237                0               0
                        0.108608        -36.1753                0               0         0.893832         -133.03                0               0
                         0.43183        -42.5238                0               0        0.0585626         19.9411                0               0
                         0.89383        -133.029                0               0         0.108506         -36.114                0               0
75.36                  0.0570552         21.6388                0               0         0.432576        -43.5822                0               0
                        0.108135        -37.9368                0               0         0.893271        -134.044                0               0
                        0.432575        -43.5823                0               0        0.0572248         21.8375                0               0
                        0.893269        -134.043                0               0         0.108031        -37.8767                0               0
75.405                 0.0557124         23.7748                0               0         0.433076        -44.7053                0               0
                        0.107599        -39.8242                0               0          0.89288        -135.117                0               0
                        0.433076        -44.7054                0               0        0.0558934         23.9676                0               0
                        0.892879        -135.116                0               0         0.107494        -39.7654                0               0
75.45                  0.0544111         26.1673                0               0         0.433345        -45.8908                0               0
                         0.10701        -41.8371                0               0         0.892672        -136.245                0               0
                        0.433344        -45.8909                0               0        0.0546039         26.3519                0               0
                        0.892671        -136.244                0               0         0.106902        -41.7797                0               0
75.495                 0.0531923         28.8344                0               0         0.433392        -47.1364                0               0
                        0.106371        -43.9741                0               0          0.89265        -137.426                0               0
                        0.433392        -47.1365                0               0         0.053397          29.008                0               0
                         0.89265        -137.425                0               0         0.106262        -43.9181                0               0
75.54                  0.0521018         31.7883                0               0         0.433228        -48.4392                0               0
                        0.105689        -46.2331                0               0         0.892812        -138.656                0               0
                        0.433228        -48.4393                0               0        0.0523183         31.9476                0               0
                        0.892812        -138.655                0               0         0.105578        -46.1787                0               0
75.585                 0.0511904         35.0309                0               0         0.432859        -49.7964                0               0
                        0.104965        -48.6116                0               0         0.893149        -139.932                0               0
                        0.432859        -49.7965                0               0        0.0514181         35.1722                0               0
                        0.893149        -139.931                0               0         0.104852        -48.5588                0               0
75.63                  0.0505126         38.5491                0               0         0.432292        -51.2048                0               0
                        0.104203        -51.1062                0               0         0.893647        -141.251                0               0
                        0.432292        -51.2049                0               0        0.0507504         38.6686                0               0
                        0.893648        -141.251                0               0         0.104088        -51.0552                0               0
75.675                  0.050124         42.3106                0               0         0.431533        -52.6611                0               0
                        0.103403        -53.7133                0               0          0.89429        -142.612                0               0
                        0.431533        -52.6612                0               0        0.0503705         42.4047                0               0
                        0.894291        -142.611                0               0         0.103286        -53.6642                0               0
75.72                  0.0500791         46.2608                0               0         0.430585        -54.1621                0               0
                        0.102564        -56.4287                0               0         0.895057        -144.011                0               0
                        0.430585        -54.1622                0               0        0.0503321         46.3268                0               0
                        0.895059         -144.01                0               0         0.102446        -56.3817                0               0
75.765                 0.0504265         50.3241                0               0         0.429453        -55.7042                0               0
                        0.101687        -59.2479                0               0         0.895926        -145.447                0               0
                        0.429453        -55.7043                0               0        0.0506836         50.3601                0               0
                        0.895928        -145.446                0               0         0.101567         -59.203                0               0
75.81                  0.0512057         54.4074                0               0         0.428141        -57.2841                0               0
                         0.10077        -62.1661                0               0         0.896874        -146.917                0               0
                        0.428141        -57.2842                0               0         0.051464         54.4132                0               0
                        0.896876        -146.916                0               0         0.100648        -62.1234                0               0
75.855                 0.0524433         58.4097                0               0         0.426653        -58.8982                0               0
                       0.0998115        -65.1778                0               0         0.897877         -148.42                0               0
                        0.426653        -58.8983                0               0        0.0526999         58.3866                0               0
                        0.897878        -148.419                0               0        0.0996891        -65.1376                0               0
75.9                   0.0541512         62.2321                0               0         0.424993        -60.5431                0               0
                       0.0988105        -68.2777                0               0         0.898909        -149.954                0               0
                        0.424993        -60.5431                0               0        0.0544034         62.1831                0               0
                         0.89891        -149.953                0               0        0.0986873        -68.2401                0               0
75.945                 0.0563265         65.7887                0               0         0.423167         -62.215                0               0
                       0.0977655        -71.4597                0               0          0.89995        -151.517                0               0
                        0.423167        -62.2151                0               0        0.0565719         65.7177                0               0
                         0.89995        -151.517                0               0        0.0976418        -71.4248                0               0
75.99                  0.0589527         69.0133                0               0          0.42118        -63.9107                0               0
                       0.0966756        -74.7178                0               0         0.900976        -153.109                0               0
                         0.42118        -63.9108                0               0        0.0591894         68.9246                0               0
                        0.900977        -153.108                0               0        0.0965517        -74.6858                0               0
76.035                 0.0620027         71.8625                0               0         0.419039        -65.6265                0               0
                       0.0955402        -78.0456                0               0         0.901971        -154.727                0               0
                        0.419039        -65.6266                0               0        0.0622293         71.7608                0               0
                        0.901971        -154.726                0               0        0.0954166        -78.0167                0               0
76.08                  0.0654418          74.315                0               0         0.416754         -67.359                0               0
                       0.0943595        -81.4366                0               0         0.902918         -156.37                0               0
                        0.416754        -67.3591                0               0        0.0656573         74.2044                0               0
                        0.902918        -156.369                0               0        0.0942365        -81.4108                0               0
76.125                 0.0692302         76.3683                0               0         0.414333        -69.1046                0               0
                       0.0931345         -84.884                0               0         0.903809        -158.037                0               0
                        0.414334        -69.1047                0               0        0.0694343         76.2524                0               0
                        0.903809        -158.036                0               0        0.0930126        -84.8616                0               0
76.17                   0.073326         78.0333                0               0         0.411789        -70.8599                0               0
                       0.0918669        -88.3811                0               0         0.904639        -159.726                0               0
                        0.411789          -70.86                0               0        0.0735185         77.9151                0               0
                        0.904639        -159.725                0               0        0.0917464        -88.3622                0               0
76.215                 0.0776864         79.3309                0               0         0.409133        -72.6214                0               0
                       0.0905591        -91.9211                0               0         0.905411        -161.435                0               0
                        0.409133        -72.6215                0               0        0.0778677         79.2127                0               0
                        0.905412        -161.434                0               0        0.0904405        -91.9058                0               0
76.26                  0.0822699         80.2873                0               0         0.406379        -74.3854                0               0
                       0.0892144        -95.4971                0               0         0.906134        -163.162                0               0
                        0.406379        -74.3855                0               0        0.0824403         80.1709                0               0
                        0.906136        -163.161                0               0        0.0890983        -95.4856                0               0
76.305                 0.0870365         80.9316                0               0         0.403542        -76.1484                0               0
                       0.0878368        -99.1026                0               0         0.906824        -164.903                0               0
                        0.403542        -76.1485                0               0        0.0871967         80.8183                0               0
                        0.906827        -164.903                0               0        0.0877236         -99.095                0               0
76.35                  0.0919494         81.2938                0               0         0.400637        -77.9066                0               0
                       0.0864311        -102.731                0               0         0.907499        -166.656                0               0
                        0.400638        -77.9067                0               0        0.0921001         81.1844                0               0
                        0.907505        -166.655                0               0        0.0863213        -102.727                0               0
76.395                 0.0969759         81.4033                0               0         0.397682        -79.6561                0               0
                       0.0850022        -106.376                0               0          0.90818        -168.414                0               0
                        0.397682        -79.6563                0               0        0.0971178         81.2985                0               0
                        0.908188        -168.413                0               0        0.0848963        -106.376                0               0
76.44                   0.102089         81.2891                0               0          0.39469         -81.393                0               0
                       0.0835557        -110.031                0               0         0.908877        -170.171                0               0
                         0.39469        -81.3931                0               0         0.102223         81.1893                0               0
                        0.908889        -170.171                0               0        0.0834542        -110.036                0               0
76.485                  0.107268         80.9794                0               0         0.391678         -83.113                0               0
                       0.0820971        -113.691                0               0         0.909587        -171.922                0               0
                        0.391678        -83.1131                0               0         0.107395         80.8849                0               0
                        0.909602        -171.921                0               0        0.0820005          -113.7                0               0
76.53                   0.112505         80.5036                0               0         0.388658        -84.8119                0               0
                        0.080632         -117.35                0               0         0.910278        -173.657                0               0
                        0.388658         -84.812                0               0         0.112626         80.4147                0               0
                        0.910296        -173.656                0               0        0.0805407        -117.364                0               0
76.575                  0.117802         79.8951                0               0         0.385642        -86.4852                0               0
                       0.0791652        -121.003                0               0         0.910889         -175.37                0               0
                        0.385642        -86.4854                0               0         0.117917         79.8122                0               0
                         0.91091        -175.369                0               0        0.0790798        -121.022                0               0
76.62                   0.123174         79.1979                0               0         0.382638        -88.1287                0               0
                        0.077701        -124.645                0               0         0.911326        -177.053                0               0
                        0.382638        -88.1289                0               0         0.123284         79.1213                0               0
                        0.911347        -177.052                0               0         0.077622        -124.669                0               0
76.665                  0.128628         78.4768                0               0         0.379651        -89.7381                0               0
                       0.0762422        -128.271                0               0         0.911474        -178.703                0               0
                        0.379651        -89.7383                0               0         0.128731         78.4072                0               0
                        0.911495        -178.702                0               0        0.0761702          -128.3                0               0
76.71                    0.13409         77.8237                0               0         0.376682        -91.3096                0               0
                        0.074789        -131.878                0               0         0.911216         179.681                0               0
                        0.376683        -91.3098                0               0         0.134183         77.7611                0               0
                        0.911235         179.683                0               0        0.0747248        -131.913                0               0
76.755                  0.139265           77.32                0               0         0.373731        -92.8397                0               0
                       0.0733374        -135.461                0               0         0.910451         178.099                0               0
                        0.373732        -92.8399                0               0         0.139341         77.2626                0               0
                        0.910468         178.101                0               0         0.073282        -135.501                0               0
76.8                    0.143634         76.9116                0               0         0.370793        -94.3258                0               0
                       0.0718746        -139.016                0               0         0.909113         176.547                0               0
                        0.370793         -94.326                0               0         0.143692         76.8549                0               0
                        0.909128         176.548                0               0        0.0718298        -139.063                0               0
76.845                  0.146965         76.3628                0               0         0.367861         -95.766                0               0
                       0.0703685         -142.54                0               0         0.907177         175.021                0               0
                        0.367862        -95.7662                0               0         0.147015         76.3037                0               0
                        0.907189         175.022                0               0        0.0703375        -142.595                0               0
76.89                   0.149669         75.5071                0               0         0.364932        -97.1594                0               0
                       0.0687337        -146.033                0               0         0.904656         173.516                0               0
                        0.364932        -97.1595                0               0          0.14972         75.4471                0               0
                        0.904666         173.517                0               0        0.0687241        -146.099                0               0
76.935                   0.15224         74.3951                0               0         0.361998        -98.5058                0               0
                       0.0666874        -149.526                0               0         0.901593         172.029                0               0
                        0.361999        -98.5059                0               0         0.152296         74.3369                0               0
                        0.901601          172.03                0               0        0.0667246         -149.61                0               0
76.98                    0.15486          73.149                0               0         0.359059        -99.8062                0               0
                       0.0626695        -153.612                0               0         0.898047         170.559                0               0
                         0.35906        -99.8063                0               0         0.154919          73.094                0               0
                        0.898055         170.559                0               0        0.0629297        -153.705                0               0
77.025                  0.157515         71.8532                0               0         0.356115        -101.062                0               0
                       0.0743853        -165.274                0               0          0.89409         169.103                0               0
                        0.356116        -101.062                0               0         0.157575         71.8018                0               0
                        0.894098         169.104                0               0        0.0736747        -165.829                0               0
77.07                   0.160141         70.5493                0               0         0.353171        -102.276                0               0
                       0.0691286        -161.044                0               0         0.889793         167.662                0               0
                        0.353172        -102.276                0               0         0.160201         70.5014                0               0
                        0.889801         167.662                0               0        0.0691007        -161.089                0               0
77.115                  0.162686         69.2555                0               0         0.350234        -103.449                0               0
                       0.0668008        -163.757                0               0         0.885224         166.235                0               0
                        0.350235         -103.45                0               0         0.162746         69.2109                0               0
                        0.885232         166.236                0               0        0.0667669        -163.792                0               0
77.16                   0.165118         67.9794                0               0         0.347316        -104.586                0               0
                       0.0653421        -166.861                0               0         0.880448         164.824                0               0
                        0.347317        -104.586                0               0         0.165176         67.9379                0               0
                        0.880455         164.825                0               0        0.0653137          -166.9                0               0
77.205                  0.167415         66.7246                0               0         0.344431        -105.689                0               0