! TOUCHSTONE file generated by CST MICROWAVE STUDIO
! Date and time: Mon Jun 21 17:06:26 2021
! Project name: HIPS_d_sweep.cst
! Parameters = {a=0.735; b=0.393; d=16.9548; fmax=120; fmin=75; phi=0; theta=0}
! Header version: 2018
! Port assignment regex: !\s*Touchstone port\s*([0-9]+)\s*=\s*(CST MWS port|CST DS port)\s*([0-9]+|Zmin|Zmax)\s*\(\"(.*)\"\)(\s*mode\s*([0-9]+))?.*
! Touchstone port assignment:
! Touchstone port 1 = CST MWS port Zmin ("") mode 1
! Touchstone port 2 = CST MWS port Zmin ("") mode 2
! Touchstone port 3 = CST MWS port Zmax ("") mode 1
! Touchstone port 4 = CST MWS port Zmax ("") mode 2
! S-Parameters are not renormalized. Unphysical impedance of 0 will be written to the file.
# GHz S MA R 0
75                      0.198273         47.2326                0               0         0.427573         44.5074                0               0
                       0.0995757         119.463                0               0         0.876325        -46.4112                0               0
                        0.427574         44.5073                0               0         0.198236         47.2425                0               0
                        0.876331         -46.411                0               0        0.0996811         119.488                0               0
75.045                  0.197915         46.9227                0               0          0.43046          43.889                0               0
                        0.100355         118.458                0               0         0.877837        -46.9551                0               0
                         0.43046         43.8888                0               0         0.197875         46.9333                0               0
                        0.877843         -46.955                0               0          0.10046         118.483                0               0
75.09                   0.197492         46.5478                0               0         0.433051         43.2532                0               0
                        0.101063         117.376                0               0         0.878634        -47.5404                0               0
                         0.43305         43.2531                0               0         0.197449         46.5589                0               0
                        0.878639        -47.5403                0               0         0.101166         117.403                0               0
75.135                  0.197029         46.1079                0               0         0.435327         42.5953                0               0
                        0.101701         116.212                0               0         0.878766        -48.1747                0               0
                        0.435326         42.5952                0               0         0.196985         46.1194                0               0
                        0.878771        -48.1746                0               0         0.101804         116.239                0               0
75.18                   0.196548         45.6045                0               0         0.437276         41.9101                0               0
                        0.102275         114.957                0               0          0.87831         -48.865                0               0
                        0.437274           41.91                0               0         0.196504         45.6164                0               0
                        0.878314        -48.8649                0               0         0.102376         114.985                0               0
75.225                  0.196067         45.0404                0               0         0.438891         41.1924                0               0
                        0.102791         113.606                0               0         0.877362         -49.617                0               0
                        0.438889         41.1922                0               0         0.196023         45.0529                0               0
                        0.877367        -49.6169                0               0         0.102892         113.635                0               0
75.27                   0.195599         44.4192                0               0         0.440176          40.437                0               0
                        0.103259         112.153                0               0         0.876037        -50.4347                0               0
                        0.440174         40.4368                0               0         0.195556         44.4323                0               0
                        0.876041        -50.4346                0               0         0.103359         112.184                0               0
75.315                  0.195151         43.7449                0               0         0.441141          39.639                0               0
                        0.103689         110.595                0               0         0.874454        -51.3206                0               0
                         0.44114         39.6388                0               0          0.19511         43.7587                0               0
                        0.874458        -51.3205                0               0         0.103787         110.627                0               0
75.36                   0.194728         43.0216                0               0         0.441805         38.7941                0               0
                        0.104091         108.928                0               0         0.872734        -52.2751                0               0
                        0.441803         38.7939                0               0         0.194689         43.0363                0               0
                        0.872738         -52.275                0               0         0.104189         108.961                0               0
75.405                   0.19433         42.2533                0               0         0.442191         37.8987                0               0
                        0.104478         107.152                0               0         0.870991         -53.297                0               0
                         0.44219         37.8986                0               0         0.194293          42.269                0               0
                        0.870995        -53.2969                0               0         0.104575         107.186                0               0
75.45                   0.193953         41.4437                0               0         0.442331         36.9502                0               0
                        0.104862         105.267                0               0         0.869325        -54.3838                0               0
                         0.44233         36.9502                0               0         0.193918         41.4605                0               0
                        0.869328        -54.3837                0               0         0.104958         105.302                0               0
75.495                  0.193591         40.5963                0               0         0.442257          35.947                0               0
                        0.105253         103.274                0               0          0.86782        -55.5316                0               0
                        0.442257          35.947                0               0         0.193559         40.6143                0               0
                        0.867823        -55.5315                0               0         0.105348         103.311                0               0
75.54                   0.193237          39.714                0               0         0.442004         34.8883                0               0
                        0.105662         101.178                0               0         0.866541        -56.7357                0               0
                        0.442005         34.8885                0               0         0.193207         39.7333                0               0
                        0.866545        -56.7356                0               0         0.105756         101.216                0               0
75.585                  0.192882         38.7996                0               0         0.441607         33.7748                0               0
                        0.106097         98.9821                0               0         0.865535        -57.9909                0               0
                        0.441608          33.775                0               0         0.192853         38.8203                0               0
                        0.865538        -57.9908                0               0          0.10619         99.0224                0               0
75.63                   0.192514         37.8555                0               0         0.441099         32.6077                0               0
                        0.106565         96.6932                0               0         0.864829        -59.2919                0               0
                          0.4411          32.608                0               0         0.192487         37.8775                0               0
                        0.864832        -59.2918                0               0         0.106656         96.7354                0               0
75.675                  0.192123         36.8836                0               0         0.440508         31.3894                0               0
                         0.10707         94.3181                0               0         0.864434        -60.6333                0               0
                        0.440509         31.3897                0               0         0.192097         36.9071                0               0
                        0.864436        -60.6332                0               0         0.107159          94.362                0               0
75.72                   0.191696         35.8858                0               0         0.439859         30.1227                0               0
                        0.107613         91.8641                0               0         0.864346        -62.0099                0               0
                         0.43986         30.1231                0               0         0.191672         35.9108                0               0
                        0.864348        -62.0098                0               0         0.107701         91.9099                0               0
75.765                  0.191223         34.8639                0               0         0.439173         28.8111                0               0
                        0.108194         89.3392                0               0         0.864551        -63.4171                0               0
                        0.439174         28.8116                0               0           0.1912         34.8904                0               0
                        0.864553         -63.417                0               0          0.10828         89.3869                0               0
75.81                   0.190691         33.8195                0               0         0.438464         27.4587                0               0
                         0.10881         86.7515                0               0         0.865024        -64.8506                0               0
                        0.438465         27.4591                0               0         0.190669         33.8475                0               0
                        0.865026        -64.8505                0               0         0.108895         86.8012                0               0
75.855                  0.190087         32.7541                0               0         0.437744         26.0693                0               0
                        0.109456         84.1091                0               0         0.865736        -66.3064                0               0
                        0.437745         26.0698                0               0         0.190066         32.7837                0               0
                        0.865738        -66.3063                0               0         0.109539         84.1608                0               0
75.9                      0.1894         31.6695                0               0         0.437019         24.6474                0               0
                        0.110126           81.42                0               0          0.86665        -67.7812                0               0
                        0.437019         24.6479                0               0          0.18938         31.7007                0               0
                        0.866652        -67.7812                0               0         0.110206         81.4737                0               0
75.945                  0.188619         30.5674                0               0          0.43629          23.197                0               0
                         0.11081          78.692                0               0          0.86773        -69.2721                0               0
                         0.43629         23.1975                0               0           0.1886         30.6002                0               0
                        0.867732        -69.2721                0               0         0.110887         78.7476                0               0
75.99                   0.187732         29.4498                0               0         0.435556         21.7224                0               0
                        0.111499         75.9323                0               0         0.868934        -70.7766                0               0
                        0.435556         21.7228                0               0         0.187714         29.4842                0               0
                        0.868936        -70.7766                0               0         0.111574         75.9899                0               0
76.035                   0.18673         28.3186                0               0         0.434815         20.2274                0               0
                        0.112182         73.1479                0               0         0.870224        -72.2923                0               0
                        0.434814         20.2277                0               0         0.186712         28.3547                0               0
                        0.870226        -72.2924                0               0         0.112254         73.2074                0               0
76.08                   0.185603         27.1762                0               0         0.434059         18.7158                0               0
                        0.112848         70.3453                0               0         0.871559        -73.8176                0               0
                        0.434058         18.7162                0               0         0.185585          27.214                0               0
                        0.871562        -73.8176                0               0         0.112918         70.4068                0               0
76.125                  0.184342         26.0252                0               0         0.433283         17.1913                0               0
                        0.113487         67.5306                0               0         0.872902        -75.3505                0               0
                        0.433282         17.1916                0               0         0.184325         26.0648                0               0
                        0.872905        -75.3506                0               0         0.113554          67.594                0               0
76.17                    0.18294         24.8683                0               0         0.432478         15.6571                0               0
                        0.114087         64.7095                0               0         0.874217        -76.8898                0               0
                        0.432477         15.6573                0               0         0.182924         24.9098                0               0
                        0.874219        -76.8899                0               0         0.114151         64.7748                0               0
76.215                  0.181391         23.7087                0               0         0.431636         14.1164                0               0
                        0.114638         61.8873                0               0         0.875468        -78.4339                0               0
                        0.431635         14.1165                0               0         0.181376         23.7521                0               0
                        0.875471         -78.434                0               0         0.114698         61.9545                0               0
76.26                   0.179691         22.5499                0               0         0.430751         12.5719                0               0
                        0.115129          59.069                0               0         0.876623        -79.9817                0               0
                        0.430749         12.5719                0               0         0.179676         22.5953                0               0
                        0.876627        -79.9819                0               0         0.115186         59.1381                0               0
76.305                  0.177836         21.3953                0               0         0.429813         11.0264                0               0
                        0.115553         56.2593                0               0         0.877655         -81.532                0               0
                        0.429812         11.0263                0               0         0.177822         21.4428                0               0
                        0.877658        -81.5322                0               0         0.115607         56.3302                0               0
76.35                   0.175825         20.2491                0               0         0.428817         9.48227                0               0
                        0.115902         53.4624                0               0         0.878534        -83.0837                0               0
                        0.428816         9.48216                0               0         0.175812         20.2988                0               0
                        0.878538         -83.084                0               0         0.115952         53.5352                0               0
76.395                  0.173659         19.1154                0               0         0.427758         7.94182                0               0
                        0.116169         50.6824                0               0         0.879238        -84.6357                0               0
                        0.427756         7.94164                0               0         0.173647         19.1673                0               0
                        0.879242         -84.636                0               0         0.116215         50.7571                0               0
76.44                   0.171339         17.9986                0               0         0.426629          6.4071                0               0
                        0.116349         47.9232                0               0         0.879746        -86.1869                0               0
                        0.426627         6.40686                0               0         0.171329         18.0529                0               0
                         0.87975        -86.1871                0               0         0.116392         47.9996                0               0
76.485                   0.16887         16.9033                0               0         0.425428         4.88001                0               0
                        0.116439          45.188                0               0         0.880038        -87.7361                0               0
                        0.425426         4.87971                0               0         0.168861         16.9602                0               0
                        0.880042        -87.7364                0               0         0.116479         45.2662                0               0
76.53                   0.166258         15.8343                0               0         0.424154         3.36231                0               0
                        0.116438         42.4801                0               0         0.880101        -89.2823                0               0
                        0.424152         3.36196                0               0         0.166251         15.8938                0               0
                        0.880105        -89.2826                0               0         0.116474         42.5602                0               0
76.575                  0.163511         14.7965                0               0         0.422804          1.8556                0               0
                        0.116343         39.8024                0               0         0.879922        -90.8244                0               0
                        0.422802         1.85521                0               0         0.163506         14.8587                0               0
                        0.879926        -90.8247                0               0         0.116376         39.8842                0               0
76.62                   0.160637         13.7948                0               0         0.421379        0.361333                0               0
                        0.116157         37.1573                0               0         0.879491        -92.3613                0               0
                        0.421377        0.360911                0               0         0.160635         13.8599                0               0
                        0.879496        -92.3616                0               0         0.116186         37.2409                0               0
76.665                  0.157649         12.8341                0               0         0.419882        -1.11917                0               0
                         0.11588         34.5472                0               0         0.878804        -93.8917                0               0
                         0.41988        -1.11961                0               0         0.157649         12.9022                0               0
                        0.878808         -93.892                0               0         0.115906         34.6325                0               0
76.71                   0.154557         11.9193                0               0         0.418314        -2.58471                0               0
                        0.115516         31.9739                0               0         0.877855        -95.4146                0               0
                        0.418311        -2.58517                0               0          0.15456         11.9905                0               0
                        0.877859         -95.415                0               0         0.115538          32.061                0               0
76.755                  0.151375         11.0553                0               0         0.416679        -4.03424                0               0
                        0.115068         29.4391                0               0         0.876646        -96.9288                0               0
                        0.416677        -4.03471                0               0         0.151382         11.1296                0               0
                         0.87665        -96.9292                0               0         0.115087         29.5279                0               0
76.8                    0.148118         10.2466                0               0         0.414982        -5.46682                0               0
                        0.114541         26.9439                0               0         0.875178        -98.4333                0               0
                         0.41498         -5.4673                0               0         0.148128         10.3242                0               0
                        0.875182        -98.4337                0               0         0.114557         27.0344                0               0
76.845                    0.1448         9.49776                0               0         0.413229        -6.88166                0               0
                        0.113941         24.4893                0               0         0.873457        -99.9268                0               0
                        0.413227        -6.88213                0               0         0.144815         9.57878                0               0
                        0.873461        -99.9272                0               0         0.113953         24.5816                0               0
76.89                   0.141436         8.81305                0               0         0.411426        -8.27807                0               0
                        0.113272         22.0761                0               0         0.871491        -101.408                0               0
                        0.411424        -8.27853                0               0         0.141455         8.89753                0               0
                        0.871495        -101.409                0               0          0.11328         22.1701                0               0
76.935                  0.138041         8.19646                0               0          0.40958         -9.6555                0               0
                         0.11254         19.7045                0               0          0.86929        -102.877                0               0
                        0.409578        -9.65595                0               0         0.138066         8.28445                0               0
                        0.869293        -102.877                0               0         0.112546         19.8001                0               0
76.98                   0.134632         7.65168                0               0         0.407698        -11.0135                0               0
                        0.111753         17.3745                0               0         0.866866        -104.332                0               0
                        0.407696        -11.0139                0               0         0.134662         7.74323                0               0
                         0.86687        -104.332                0               0         0.111755         17.4719                0               0
77.025                  0.131222         7.18212                0               0         0.405789        -12.3518                0               0
                        0.110915         15.0861                0               0         0.864234        -105.771                0               0
                        0.405787        -12.3522                0               0         0.131258         7.27727                0               0
                        0.864238        -105.772                0               0         0.110915         15.1851                0               0
77.07                   0.127826         6.79085                0               0         0.403861        -13.6702                0               0
                        0.110034         12.8386                0               0         0.861412        -107.195                0               0
                        0.403859        -13.6706                0               0         0.127868         6.88959                0               0
                        0.861415        -107.196                0               0         0.110031         12.9393                0               0
77.115                  0.124458         6.48058                0               0         0.401923        -14.9687                0               0
                        0.109115         10.6314                0               0         0.858415        -108.603                0               0
                        0.401921        -14.9691                0               0         0.124507          6.5829                0               0
                        0.858419        -108.603                0               0         0.109109         10.7337                0               0
77.16                   0.121131         6.25366                0               0         0.399982        -16.2473                0               0
                        0.108164         8.46358                0               0         0.855266        -109.994                0               0
                         0.39998        -16.2476                0               0         0.121186         6.35951                0               0
                        0.855269        -109.994                0               0         0.108155         8.56755                0               0
77.205                  0.117856         6.11207                0               0         0.398048        -17.5062                0               0