! TOUCHSTONE file generated by CST MICROWAVE STUDIO
! Date and time: Mon Jun 21 17:07:20 2021
! Project name: HIPS_d_sweep.cst
! Parameters = {a=0.735; b=0.393; d=23.3869; fmax=120; fmin=75; phi=0; theta=0}
! Header version: 2018
! Port assignment regex: !\s*Touchstone port\s*([0-9]+)\s*=\s*(CST MWS port|CST DS port)\s*([0-9]+|Zmin|Zmax)\s*\(\"(.*)\"\)(\s*mode\s*([0-9]+))?.*
! Touchstone port assignment:
! Touchstone port 1 = CST MWS port Zmin ("") mode 1
! Touchstone port 2 = CST MWS port Zmin ("") mode 2
! Touchstone port 3 = CST MWS port Zmax ("") mode 1
! Touchstone port 4 = CST MWS port Zmax ("") mode 2
! S-Parameters are not renormalized. Unphysical impedance of 0 will be written to the file.
# GHz S MA R 0
75                      0.219325         15.1362                0               0        0.0481608          24.989                0               0
                       0.0399628         30.0424                0               0         0.973642        -75.3788                0               0
                       0.0481616         24.9883                0               0         0.219319         15.1406                0               0
                        0.973641        -75.3795                0               0        0.0399953         30.2142                0               0
75.045                  0.217878         14.4963                0               0        0.0516785         23.6023                0               0
                       0.0408923         30.0734                0               0         0.974246        -76.0554                0               0
                       0.0516789         23.6021                0               0         0.217871         14.5003                0               0
                        0.974245        -76.0561                0               0        0.0409394         30.2701                0               0
75.09                    0.21617          13.773                0               0        0.0550018         22.2516                0               0
                       0.0416289         30.0198                0               0         0.974648        -76.8201                0               0
                        0.055002         22.2516                0               0         0.216163         13.7769                0               0
                        0.974648        -76.8208                0               0        0.0416776          30.228                0               0
75.135                  0.214215         12.9649                0               0        0.0580923         20.9139                0               0
                       0.0421954         29.8067                0               0         0.974913        -77.6729                0               0
                       0.0580925          20.914                0               0         0.214207         12.9689                0               0
                        0.974913        -77.6736                0               0        0.0422402         30.0131                0               0
75.18                   0.212021         12.0715                0               0        0.0609157         19.5708                0               0
                       0.0426255          29.391                0               0         0.975099        -78.6132                0               0
                       0.0609159         19.5708                0               0         0.212013         12.0756                0               0
                        0.975099        -78.6139                0               0        0.0426658         29.5863                0               0
75.225                  0.209593         11.0925                0               0        0.0634423         18.2071                0               0
                       0.0429527         28.7551                0               0         0.975258        -79.6402                0               0
                       0.0634426          18.207                0               0         0.209586         11.0969                0               0
                        0.975258        -79.6409                0               0        0.0429903         28.9348                0               0
75.27                   0.206935         10.0283                0               0         0.065648         16.8107                0               0
                       0.0432044         27.8982                0               0         0.975435        -80.7523                0               0
                       0.0656486         16.8104                0               0         0.206927          10.033                0               0
                        0.975435         -80.753                0               0        0.0432411         28.0616                0               0
75.315                  0.204042         8.87969                0               0        0.0675147         15.3717                0               0
                       0.0433994         26.8288                0               0         0.975665         -81.948                0               0
                       0.0675156         15.3713                0               0         0.204035         8.88464                0               0
                        0.975665        -81.9487                0               0        0.0434366         26.9773                0               0
75.36                   0.200912         7.64753                0               0        0.0690308         13.8827                0               0
                       0.0435485          25.559                0               0         0.975979         -83.225                0               0
                       0.0690319         13.8821                0               0         0.200905         7.65279                0               0
                        0.975978        -83.2257                0               0         0.043587         25.6955                0               0
75.405                  0.197537         6.33308                0               0        0.0701905         12.3378                0               0
                        0.043656          24.102                0               0         0.976396        -84.5811                0               0
                       0.0701918         12.3372                0               0          0.19753         6.33862                0               0
                        0.976396        -84.5818                0               0        0.0436957         24.2295                0               0
75.45                   0.193906         4.93776                0               0        0.0709941         10.7331                0               0
                        0.043721         22.4701                0               0         0.976932        -86.0138                0               0
                       0.0709955         10.7324                0               0           0.1939         4.94357                0               0
                        0.976931        -86.0145                0               0        0.0437614         22.5919                0               0
75.495                   0.19001         3.46325                0               0         0.071447          9.0657                0               0
                       0.0437389         20.6746                0               0         0.977592        -87.5203                0               0
                       0.0714485           9.065                0               0         0.190003         3.46928                0               0
                        0.977592        -87.5211                0               0        0.0437792         20.7934                0               0
75.54                   0.185835         1.91149                0               0        0.0715594         7.33424                0               0
                       0.0437024         18.7257                0               0         0.978378        -89.0979                0               0
                       0.0715609         7.33355                0               0         0.185829         1.91771                0               0
                        0.978377        -89.0986                0               0        0.0437418          18.844                0               0
75.585                   0.18137        0.284736                0               0        0.0713452         5.53815                0               0
                       0.0436026         16.6328                0               0         0.979283        -90.7434                0               0
                       0.0713466         5.53749                0               0         0.181364        0.291101                0               0
                        0.979283        -90.7442                0               0        0.0436401         16.7526                0               0
75.63                   0.176601        -1.41441                0               0        0.0708214         3.67768                0               0
                       0.0434292         14.4051                0               0         0.980297        -92.4538                0               0
                       0.0708227         3.67707                0               0         0.176596        -1.40793                0               0
                        0.980297        -92.4546                0               0        0.0434643         14.5279                0               0
75.675                  0.171518        -3.18292                0               0        0.0700069         1.75369                0               0
                       0.0431721         12.0517                0               0         0.981405         -94.226                0               0
                       0.0700081         1.75314                0               0         0.171513        -3.17634                0               0
                        0.981405        -94.2268                0               0        0.0432043         12.1786                0               0
75.72                    0.16611         -5.0173                0               0        0.0689222       -0.232516                0               0
                       0.0428212         9.58209                0               0         0.982589        -96.0566                0               0
                       0.0689233       -0.232997                0               0         0.166106        -5.01064                0               0
                        0.982589        -96.0574                0               0        0.0428503         9.71387                0               0
75.765                  0.160371        -6.91355                0               0        0.0675884         -2.2793                0               0
                       0.0423675         7.00647                0               0         0.983827        -97.9424                0               0
                       0.0675893        -2.27972                0               0         0.160367         -6.9068                0               0
                        0.983827        -97.9432                0               0        0.0423934         7.14344                0               0
75.81                   0.154294        -8.86716                0               0        0.0660263        -4.38482                0               0
                       0.0418032         4.33559                0               0         0.985096        -99.8799                0               0
                       0.0660272        -4.38519                0               0         0.154291        -8.86028                0               0
                        0.985097        -99.8807                0               0        0.0418262          4.4777                0               0
75.855                   0.14788        -10.8731                0               0        0.0642565        -6.54711                0               0
                       0.0411228         1.58082                0               0         0.986375        -101.866                0               0
                       0.0642573        -6.54743                0               0         0.147877         -10.866                0               0
                        0.986375        -101.866                0               0         0.041143         1.72767                0               0
75.9                    0.141129        -12.9257                0               0        0.0622986        -8.76409                0               0
                       0.0403227        -1.24609                0               0         0.987639        -103.896                0               0
                       0.0622993        -8.76439                0               0         0.141127        -12.9184                0               0
                        0.987639        -103.897                0               0        0.0403407        -1.09513                0               0
75.945                  0.134049        -15.0191                0               0        0.0601708        -11.0336                0               0
                       0.0394022        -4.13327                0               0         0.988868        -105.968                0               0
                       0.0601715        -11.0339                0               0         0.134047        -15.0114                0               0
                        0.988869        -105.968                0               0        0.0394182        -3.97905                0               0
75.99                   0.126651         -17.147                0               0          0.05789        -13.3535                0               0
                       0.0383631        -7.06915                0               0         0.990045        -108.076                0               0
                       0.0578907        -13.3538                0               0         0.126649        -17.1386                0               0
                        0.990045        -108.077                0               0        0.0383775        -6.91261                0               0
76.035                   0.11895        -19.3028                0               0        0.0554716        -15.7214                0               0
                       0.0372095        -10.0429                0               0         0.991154        -110.219                0               0
                       0.0554723        -15.7217                0               0         0.118949        -19.2937                0               0
                        0.991155         -110.22                0               0        0.0372228        -9.88497                0               0
76.08                   0.110964        -21.4803                0               0        0.0529293        -18.1347                0               0
                       0.0359482        -13.0448                0               0         0.992188        -112.391                0               0
                       0.0529301         -18.135                0               0         0.110964        -21.4701                0               0
                        0.992189        -112.391                0               0        0.0359604        -12.8863                0               0
76.125                  0.102717        -23.6733                0               0        0.0502754        -20.5906                0               0
                       0.0345874        -16.0667                0               0         0.993143        -114.588                0               0
                       0.0502763         -20.591                0               0         0.102717        -23.6617                0               0
                        0.993144        -114.588                0               0        0.0345987        -15.9081                0               0
76.17                  0.0942322        -25.8766                0               0        0.0475209        -23.0858                0               0
                       0.0331369        -19.1023                0               0         0.994021        -116.806                0               0
                        0.047522        -23.0863                0               0         0.094233        -25.8631                0               0
                        0.994021        -116.807                0               0        0.0331474        -18.9437                0               0
76.215                 0.0855377        -28.0856                0               0        0.0446758        -25.6165                0               0
                       0.0316072         -22.147                0               0          0.99483        -119.041                0               0
                        0.044677        -25.6171                0               0        0.0855392        -28.0699                0               0
                         0.99483        -119.041                0               0        0.0316168        -21.9878                0               0
76.26                  0.0766606        -30.2976                0               0        0.0417493        -28.1779                0               0
                        0.030009         -25.198                0               0         0.995583        -121.287                0               0
                       0.0417506        -28.1785                0               0        0.0766631         -30.279                0               0
                        0.995583        -121.288                0               0        0.0300176        -25.0371                0               0
76.305                 0.0676289        -32.5116                0               0        0.0387502        -30.7641                0               0
                        0.028353        -28.2536                0               0         0.996296         -123.54                0               0
                       0.0387516        -30.7649                0               0        0.0676321        -32.4894                0               0
                        0.996297        -123.541                0               0        0.0283605         -28.089                0               0
76.35                  0.0584699        -34.7288                0               0        0.0356876        -33.3679                0               0
                        0.026649        -31.3127                0               0         0.996986        -125.795                0               0
                       0.0356891        -33.3686                0               0        0.0584737         -34.702                0               0
                        0.996987        -125.796                0               0        0.0266553        -31.1416                0               0
76.395                 0.0492102         -36.953                0               0        0.0325715        -35.9795                0               0
                       0.0249063        -34.3731                0               0         0.997663        -128.046                0               0
                       0.0325731        -35.9803                0               0        0.0492144        -36.9201                0               0
                        0.997663        -128.047                0               0        0.0249112        -34.1918                0               0
76.44                   0.039876        -39.1904                0               0        0.0294136        -38.5865                0               0
                       0.0231328        -37.4301                0               0         0.998327        -130.288                0               0
                       0.0294151        -38.5872                0               0        0.0398803        -39.1491                0               0
                        0.998328        -130.289                0               0        0.0231363        -37.2342                0               0
76.485                  0.030494        -41.4487                0               0        0.0262283        -41.1709                0               0
                       0.0213357        -40.4736                0               0         0.998962        -132.517                0               0
                       0.0262298        -41.1717                0               0        0.0304979        -41.3943                0               0
                        0.998963        -132.517                0               0        0.0213376         -40.258                0               0
76.53                   0.021092        -43.7331                0               0        0.0230344        -43.7061                0               0
                        0.019521        -43.4847                0               0         0.999528        -134.728                0               0
                       0.0230357        -43.7068                0               0        0.0210952        -43.6546                0               0
                        0.999528        -134.729                0               0        0.0195213        -43.2436                0               0
76.575                 0.0117003        -46.0242                0               0        0.0198558         -46.147                0               0
                       0.0176941        -46.4305                0               0         0.999954        -136.919                0               0
                        0.019857        -46.1476                0               0        0.0117025        -45.8842                0               0
                        0.999955         -136.92                0               0         0.017693        -46.1575                0               0
76.62                 0.00235221        -47.7617                0               0        0.0167237        -48.4099                0               0
                       0.0158604         -49.256                0               0                1         -139.09                0               0
                       0.0167246        -48.4106                0               0       0.00235391        -47.0722                0               0
                               1        -139.091                0               0        0.0158581        -48.9442                0               0
76.665                0.00691722         128.537                0               0        0.0136769        -50.3219                0               0
                       0.0140258        -51.8724                0               0         0.999955        -141.242                0               0
                       0.0136776         -50.323                0               0       0.00691729         128.302                0               0
                        0.999955        -141.242                0               0        0.0140227        -51.5139                0               0
76.71                  0.0160699         126.095                0               0        0.0107626         -51.494                0               0
                        0.012198        -54.1359                0               0         0.999236        -143.376                0               0
                       0.0107631        -51.4959                0               0        0.0160705         125.992                0               0
                        0.999236        -143.377                0               0        0.0121949        -53.7211                0               0
76.755                 0.0250697         123.441                0               0       0.00803826         -50.977                0               0
                       0.0103885        -55.8088                0               0         0.997811        -145.495                0               0
                      0.00803865        -50.9805                0               0        0.0250705         123.372                0               0
                        0.997811        -145.496                0               0        0.0103865        -55.3251                0               0
76.8                   0.0338818         120.685                0               0       0.00559183        -46.2268                0               0
                      0.00861525        -56.4818                0               0         0.995509        -147.602                0               0
                      0.00559218         -46.233                0               0        0.0338824         120.632                0               0
                        0.995509        -147.602                0               0       0.00861599        -55.9106                0               0
76.845                  0.042474         117.865                0               0       0.00365997        -30.0244                0               0
                      0.00690894        -55.4052                0               0         0.992192        -149.693                0               0
                      0.00366027         -30.036                0               0        0.0424742         117.819                0               0
                        0.992193        -149.694                0               0       0.00691478        -54.7185                0               0
76.89                  0.0508167         115.013                0               0       0.00300807          6.8341                0               0
                      0.00532638         -51.114                0               0         0.987785        -151.766                0               0
                      0.00300807         6.81694                0               0        0.0508164         114.972                0               0
                        0.987785        -151.767                0               0       0.00534119        -50.2743                0               0
76.935                 0.0588825         112.163                0               0        0.0041632         37.2512                0               0
                       0.0039861        -40.7339                0               0         0.982296        -153.814                0               0
                      0.00416295         37.2378                0               0        0.0588817         112.125                0               0
                        0.982295        -153.815                0               0        0.0040162        -39.7366                0               0
76.98                  0.0666467         109.348                0               0       0.00619672         48.4656                0               0
                      0.00313883        -20.4267                0               0         0.975824         -155.83                0               0
                      0.00619651         48.4556                0               0        0.0666457         109.311                0               0
                        0.975823        -155.831                0               0       0.00319067        -19.5097                0               0
77.025                  0.074089         106.594                0               0       0.00853341         51.5435                0               0
                      0.00310227         6.12906                0               0         0.968542        -157.806                0               0
                      0.00853332         51.5355                0               0        0.0740878         106.559                0               0
                        0.968541        -157.807                0               0        0.0031693         6.48332                0               0
77.07                  0.0811944         103.924                0               0        0.0109901         51.5402                0               0
                      0.00379407         25.7109                0               0         0.960666        -159.738                0               0
                       0.0109901         51.5338                0               0        0.0811934         103.891                0               0
                        0.960664        -159.739                0               0       0.00386182         25.6198                0               0
77.115                 0.0879551         101.353                0               0        0.0134769         50.2209                0               0
                      0.00482039         35.8769                0               0         0.952416        -161.626                0               0
                        0.013477         50.2157                0               0        0.0879544         101.323                0               0
                        0.952414        -161.627                0               0       0.00488463         35.6412                0               0
77.16                  0.0943706         98.8913                0               0         0.015932         48.2665                0               0
                      0.00593055         40.5377                0               0         0.943989        -163.469                0               0
                        0.015932         48.2621                0               0        0.0943705         98.8622                0               0
                        0.943987         -163.47                0               0       0.00599209         40.2725                0               0
77.205                  0.100447         96.5417                0               0        0.0183095         45.9702                0               0