! TOUCHSTONE file generated by CST MICROWAVE STUDIO
! Date and time: Mon Jun 21 17:07:13 2021
! Project name: HIPS_d_sweep.cst
! Parameters = {a=0.735; b=0.393; d=22.8844; fmax=120; fmin=75; phi=0; theta=0}
! Header version: 2018
! Port assignment regex: !\s*Touchstone port\s*([0-9]+)\s*=\s*(CST MWS port|CST DS port)\s*([0-9]+|Zmin|Zmax)\s*\(\"(.*)\"\)(\s*mode\s*([0-9]+))?.*
! Touchstone port assignment:
! Touchstone port 1 = CST MWS port Zmin ("") mode 1
! Touchstone port 2 = CST MWS port Zmin ("") mode 2
! Touchstone port 3 = CST MWS port Zmax ("") mode 1
! Touchstone port 4 = CST MWS port Zmax ("") mode 2
! S-Parameters are not renormalized. Unphysical impedance of 0 will be written to the file.
# GHz S MA R 0
75                       0.21758         71.9114                0               0        0.0722133         74.0226                0               0
                       0.0210505         121.871                0               0         0.973135        -18.3381                0               0
                       0.0722118         74.0233                0               0         0.217605         71.9566                0               0
                        0.973139        -18.3381                0               0        0.0209824         121.761                0               0
75.045                  0.218586         71.1794                0               0        0.0756253         72.9807                0               0
                       0.0216259         122.408                0               0         0.973809        -18.9752                0               0
                       0.0756209         72.9825                0               0         0.218612         71.2243                0               0
                        0.973814        -18.9752                0               0        0.0215571         122.307                0               0
75.09                    0.21962         70.3968                0               0        0.0788251         72.0312                0               0
                       0.0222552         122.673                0               0          0.97385        -19.7051                0               0
                        0.078819         72.0333                0               0         0.219647         70.4413                0               0
                        0.973855        -19.7052                0               0        0.0221859          122.58                0               0
75.135                  0.220697         69.5612                0               0        0.0817534         71.1403                0               0
                       0.0229349         122.634                0               0         0.973418        -20.5286                0               0
                       0.0817467         71.1422                0               0         0.220725         69.6053                0               0
                        0.973424        -20.5287                0               0        0.0228652         122.548                0               0
75.18                   0.221836         68.6705                0               0        0.0843621         70.2748                0               0
                       0.0236594         122.263                0               0         0.972661        -21.4449                0               0
                        0.084356         70.2762                0               0         0.221864         68.7141                0               0
                        0.972667         -21.445                0               0        0.0235896         122.183                0               0
75.225                  0.223056         67.7218                0               0        0.0866174          69.404                0               0
                       0.0244214         121.544                0               0          0.97171        -22.4516                0               0
                       0.0866125         69.4048                0               0         0.223084         67.7649                0               0
                        0.971716        -22.4517                0               0        0.0243517         121.468                0               0
75.27                   0.224375         66.7117                0               0        0.0884997         68.5012                0               0
                       0.0252123         120.466                0               0         0.970676        -23.5454                0               0
                       0.0884968         68.5016                0               0         0.224403         66.7543                0               0
                        0.970682        -23.5454                0               0        0.0251429         120.394                0               0
75.315                  0.225811         65.6356                0               0        0.0900038         67.5449                0               0
                       0.0260225         119.032                0               0          0.96965         -24.722                0               0
                        0.090003          67.545                0               0         0.225839         65.6776                0               0
                        0.969655         -24.722                0               0        0.0259538         118.963                0               0
75.36                   0.227376         64.4872                0               0        0.0911361         66.5193                0               0
                       0.0268424         117.252                0               0         0.968699        -25.9768                0               0
                       0.0911373         66.5193                0               0         0.227404         64.5286                0               0
                        0.968703        -25.9768                0               0        0.0267745         117.184                0               0
75.405                  0.229071          63.259                0               0        0.0919124         65.4139                0               0
                       0.0276631         115.146                0               0         0.967872        -27.3047                0               0
                       0.0919154         65.4139                0               0         0.229098         63.2998                0               0
                        0.967876        -27.3048                0               0        0.0275962          115.08                0               0
75.45                   0.230878         61.9427                0               0        0.0923553         64.2237                0               0
                       0.0284766         112.742                0               0         0.967199        -28.7009                0               0
                       0.0923594         64.2238                0               0         0.230906         61.9829                0               0
                        0.967203         -28.701                0               0         0.028411         112.677                0               0
75.495                   0.23276         60.5316                0               0        0.0924913         62.9481                0               0
                       0.0292771         110.075                0               0         0.966691        -30.1603                0               0
                       0.0924959         62.9484                0               0         0.232788         60.5712                0               0
                        0.966695        -30.1604                0               0         0.029213         110.009                0               0
75.54                   0.234657          59.023                0               0        0.0923487         61.5905                0               0
                       0.0300606         107.181                0               0         0.966346        -31.6783                0               0
                       0.0923531          61.591                0               0         0.234685         59.0618                0               0
                        0.966349        -31.6784                0               0        0.0299983         107.115                0               0
75.585                  0.236494          57.421                0               0        0.0919558         60.1573                0               0
                       0.0308253           104.1                0               0         0.966146        -33.2505                0               0
                       0.0919592         60.1579                0               0         0.236523          57.459                0               0
                         0.96615        -33.2506                0               0        0.0307649         104.034                0               0
75.63                   0.238203         55.7371                0               0        0.0913396         58.6575                0               0
                       0.0315712          100.87                0               0         0.966064        -34.8733                0               0
                       0.0913415          58.658                0               0         0.238233         55.7742                0               0
                        0.966068        -34.8734                0               0         0.031513         100.804                0               0
75.675                  0.239738         53.9876                0               0         0.090525         57.1017                0               0
                       0.0322995          97.528                0               0         0.966063        -36.5433                0               0
                       0.0905248         57.1021                0               0         0.239767         54.0238                0               0
                        0.966067        -36.5434                0               0        0.0322436         97.4617                0               0
75.72                   0.241078         52.1894                0               0        0.0895335         55.5022                0               0
                       0.0330124         94.1065                0               0           0.9661        -38.2581                0               0
                       0.0895309         55.5022                0               0         0.241107         52.2247                0               0
                        0.966104        -38.2582                0               0        0.0329591         94.0402                0               0
75.765                  0.242226         50.3563                0               0        0.0883832         53.8719                0               0
                       0.0337124         90.6337                0               0         0.966128        -40.0162                0               0
                       0.0883781         53.8712                0               0         0.242255         50.3907                0               0
                        0.966133        -40.0163                0               0        0.0336616         90.5676                0               0
75.81                   0.243197         48.4972                0               0        0.0870879         52.2243                0               0
                       0.0344013         87.1328                0               0         0.966105         -41.817                0               0
                       0.0870804         52.2227                0               0         0.243226         48.5308                0               0
                         0.96611        -41.8171                0               0        0.0343531         87.0672                0               0
75.855                  0.244004         46.6164                0               0        0.0856563         50.5728                0               0
                       0.0350803         83.6219                0               0         0.965998        -43.6611                0               0
                       0.0856469           50.57                0               0         0.244033         46.6491                0               0
                        0.966003        -43.6611                0               0        0.0350349         83.5572                0               0
75.9                    0.244655         44.7147                0               0        0.0840918         48.9298                0               0
                       0.0357496         80.1147                0               0         0.965794        -45.5497                0               0
                       0.0840814         48.9255                0               0         0.244684         44.7467                0               0
                        0.965799        -45.5497                0               0        0.0357068         80.0512                0               0
75.945                  0.245146         42.7915                0               0        0.0823918         47.3049                0               0
                       0.0364078         76.6203                0               0         0.965515        -47.4849                0               0
                       0.0823814         47.2992                0               0         0.245175         42.8226                0               0
                        0.965519        -47.4848                0               0        0.0363677         76.5584                0               0
75.99                   0.245463         40.8453                0               0        0.0805486          45.703                0               0
                        0.037052         73.1447                0               0         0.965221         -49.468                0               0
                       0.0805394         45.6964                0               0         0.245492         40.8756                0               0
                        0.965225         -49.468                0               0        0.0370145         73.0847                0               0
76.035                  0.245589         38.8751                0               0        0.0785521         44.1208                0               0
                       0.0376778         69.6908                0               0          0.96502        -51.4985                0               0
                       0.0785454          44.114                0               0         0.245618         38.9047                0               0
                        0.965023        -51.4985                0               0         0.037643         69.6331                0               0
76.08                   0.245497         36.8804                0               0        0.0763964         42.5433                0               0
                       0.0382793         66.2597                0               0         0.965041        -53.5721                0               0
                       0.0763926         42.5376                0               0         0.245527         36.9092                0               0
                        0.965044        -53.5722                0               0        0.0382471         66.2046                0               0
76.125                  0.245162         34.8617                0               0        0.0740888         40.9432                0               0
                       0.0388492         62.8515                0               0         0.965405          -55.68                0               0
                       0.0740876         40.9401                0               0         0.245192         34.8896                0               0
                        0.965408        -55.6801                0               0        0.0388195         62.7992                0               0
76.17                   0.244555         32.8201                0               0        0.0716604         39.2853                0               0
                       0.0393789         59.4657                0               0         0.966177        -57.8093                0               0
                       0.0716601         39.2861                0               0         0.244585         32.8472                0               0
                        0.966181        -57.8096                0               0        0.0393518         59.4165                0               0
76.215                   0.24365         30.7578                0               0        0.0691681         37.5393                0               0
                       0.0398592          56.102                0               0         0.967333        -59.9459                0               0
                       0.0691666         37.5442                0               0          0.24368          30.784                0               0
                        0.967339        -59.9462                0               0        0.0398346         56.0561                0               0
76.26                   0.242421         28.6779                0               0        0.0666835         35.6949                0               0
                       0.0402798         52.7613                0               0         0.968765         -62.077                0               0
                       0.0666791         35.7027                0               0         0.242452         28.7032                0               0
                        0.968772        -62.0773                0               0        0.0402577         52.7189                0               0
76.305                  0.240846         26.5841                0               0        0.0642712         33.7697                0               0
                       0.0406307         49.4454                0               0         0.970309         -64.194                0               0
                       0.0642637         33.7787                0               0         0.240878         26.6086                0               0
                        0.970316        -64.1943                0               0        0.0406109         49.4066                0               0
76.35                   0.238908         24.4812                0               0         0.061971         31.8046                0               0
                       0.0409019         46.1581                0               0         0.971791        -66.2925                0               0
                       0.0619614         31.8131                0               0         0.238939         24.5047                0               0
                        0.971799        -66.2928                0               0        0.0408845         46.1231                0               0
76.395                  0.236592         22.3742                0               0        0.0597931         29.8492                0               0
                       0.0410844         42.9048                0               0         0.973061        -68.3717                0               0
                       0.0597829         29.8561                0               0         0.236624         22.3969                0               0
                        0.973069         -68.372                0               0        0.0410692         42.8737                0               0
76.44                   0.233891         20.2693                0               0        0.0577264         27.9493                0               0
                       0.0411707         39.6928                0               0         0.974006        -70.4329                0               0
                       0.0577171         27.9544                0               0         0.233923          20.291                0               0
                        0.974015        -70.4333                0               0        0.0411576         39.6659                0               0
76.485                  0.230802         18.1726                0               0        0.0557507         26.1403                0               0
                       0.0411549         36.5315                0               0         0.974555        -72.4782                0               0
                       0.0557433         26.1436                0               0         0.230833         18.1934                0               0
                        0.974564        -72.4785                0               0        0.0411439         36.5088                0               0
76.53                   0.227327         16.0911                0               0        0.0538456         24.4472                0               0
                       0.0410338         33.4313                0               0         0.974667        -74.5093                0               0
                       0.0538406         24.4494                0               0         0.227358         16.1109                0               0
                        0.974675        -74.5097                0               0        0.0410247         33.4131                0               0
76.575                  0.223476         14.0318                0               0        0.0519953          22.888                0               0
                       0.0408066          30.404                0               0         0.974324         -76.528                0               0
                       0.0519928         22.8893                0               0         0.223508         14.0506                0               0
                        0.974332        -76.5284                0               0        0.0407993         30.3905                0               0
76.62                   0.219264         12.0019                0               0        0.0501901         21.4766                0               0
                       0.0404754         27.4621                0               0         0.973525         -78.535                0               0
                         0.05019         21.4774                0               0         0.219295         12.0197                0               0
                        0.973533        -78.5354                0               0        0.0404699         27.4534                0               0
76.665                   0.21471         10.0087                0               0         0.048426         20.2255                0               0
                       0.0400451         24.6177                0               0         0.972279        -80.5308                0               0
                       0.0484279         20.2259                0               0         0.214741         10.0255                0               0
                        0.972286        -80.5313                0               0        0.0400413         24.6142                0               0
76.71                   0.209838         8.05956                0               0        0.0467041         19.1471                0               0
                       0.0395229          21.883                0               0           0.9706        -82.5154                0               0
                       0.0467076         19.1471                0               0         0.209869         8.07521                0               0
                        0.970606        -82.5159                0               0        0.0395207         21.8849                0               0
76.755                  0.204676         6.16147                0               0        0.0450293         18.2546                0               0
                       0.0389183         19.2687                0               0         0.968505        -84.4882                0               0
                       0.0450342         18.2542                0               0         0.204707         6.17598                0               0
                        0.968511        -84.4888                0               0        0.0389176         19.2765                0               0
76.8                    0.199256         4.32135                0               0        0.0434105         17.5615                0               0
                       0.0382422         16.7846                0               0         0.966015        -86.4489                0               0
                       0.0434163         17.5605                0               0         0.199286         4.33467                0               0
                        0.966021        -86.4495                0               0         0.038243         16.7985                0               0
76.845                  0.193609         2.54579                0               0        0.0418594         17.0813                0               0
                       0.0375066         14.4384                0               0         0.963152        -88.3965                0               0
                       0.0418656         17.0797                0               0         0.193639         2.55785                0               0
                        0.963157        -88.3971                0               0        0.0375089         14.4588                0               0
76.89                   0.187771        0.841063                0               0        0.0403902         16.8262                0               0
                       0.0367239         12.2362                0               0         0.959937        -90.3302                0               0
                       0.0403965         16.8237                0               0           0.1878        0.851806                0               0
                        0.959941        -90.3309                0               0        0.0367278         12.2634                0               0
76.935                  0.181776       -0.786895                0               0        0.0390195         16.8048                0               0
                       0.0359065         10.1818                0               0         0.956392        -92.2492                0               0
                       0.0390255         16.8016                0               0         0.181805       -0.777553                0               0
                        0.956396        -92.2499                0               0        0.0359121         10.2162                0               0
76.98                   0.175658        -2.33248                0               0        0.0377652         17.0209                0               0
                       0.0350665          8.2773                0               0          0.95254        -94.1525                0               0
                       0.0377707          17.017                0               0         0.175686        -2.32463                0               0
                        0.952544        -94.1531                0               0        0.0350738         8.31923                0               0
77.025                  0.169451        -3.79038                0               0        0.0366463         17.4702                0               0
                       0.0342147         6.52285                0               0         0.948404        -96.0392                0               0
                        0.036651         17.4657                0               0         0.169479        -3.78412                0               0
                        0.948408        -96.0398                0               0         0.034224         6.57261                0               0
77.07                   0.163187        -5.15554                0               0        0.0356813         18.1377                0               0
                       0.0333613          4.9168                0               0         0.944007        -97.9083                0               0
                        0.035685         18.1331                0               0         0.163213        -5.15097                0               0
                        0.944011        -97.9089                0               0        0.0333726         4.97466                0               0
77.115                  0.156894        -6.42305                0               0        0.0348872         18.9967                0               0
                       0.0325152         3.45596                0               0         0.939372         -99.759                0               0
                         0.03489         18.9922                0               0         0.156919        -6.42029                0               0
                        0.939376        -99.7596                0               0        0.0325287         3.52215                0               0
77.16                     0.1506        -7.58808                0               0        0.0342781          20.007                0               0
                        0.031684         2.13579                0               0         0.934521         -101.59                0               0
                       0.0342799         20.0031                0               0         0.150624        -7.58726                0               0
                        0.934525        -101.591                0               0        0.0316998          2.2105                0               0
77.205                  0.144331        -8.64578                0               0        0.0338633         21.1167                0               0