! TOUCHSTONE file generated by CST MICROWAVE STUDIO
! Date and time: Mon Jun 21 17:06:53 2021
! Project name: HIPS_d_sweep.cst
! Parameters = {a=0.735; b=0.393; d=20.3719; fmax=120; fmin=75; phi=0; theta=0}
! Header version: 2018
! Port assignment regex: !\s*Touchstone port\s*([0-9]+)\s*=\s*(CST MWS port|CST DS port)\s*([0-9]+|Zmin|Zmax)\s*\(\"(.*)\"\)(\s*mode\s*([0-9]+))?.*
! Touchstone port assignment:
! Touchstone port 1 = CST MWS port Zmin ("") mode 1
! Touchstone port 2 = CST MWS port Zmin ("") mode 2
! Touchstone port 3 = CST MWS port Zmax ("") mode 1
! Touchstone port 4 = CST MWS port Zmax ("") mode 2
! S-Parameters are not renormalized. Unphysical impedance of 0 will be written to the file.
# GHz S MA R 0
75                      0.191038         11.1502                0               0         0.237914         9.37321                0               0
                       0.0809616         42.2105                0               0         0.948874        -83.9821                0               0
                        0.237915         9.37338                0               0         0.190975         11.1512                0               0
                        0.948867        -83.9811                0               0        0.0810344         42.2812                0               0
75.045                  0.187747         10.7139                0               0         0.241784         8.55698                0               0
                       0.0817006         41.3644                0               0         0.950364        -84.5496                0               0
                        0.241783         8.55751                0               0         0.187679         10.7161                0               0
                        0.950355        -84.5488                0               0         0.081771         41.4347                0               0
75.09                   0.184974         10.3293                0               0         0.245273         7.75376                0               0
                       0.0823683         40.4261                0               0         0.950944        -85.2002                0               0
                        0.245271         7.75446                0               0         0.184905         10.3332                0               0
                        0.950935        -85.1996                0               0        0.0824366         40.4959                0               0
75.135                  0.182742         9.90543                0               0         0.248335         6.94277                0               0
                       0.0829654         39.3868                0               0         0.950838        -85.9398                0               0
                        0.248333         6.94348                0               0         0.182675         9.91033                0               0
                        0.950829        -85.9392                0               0        0.0830321         39.4559                0               0
75.18                    0.18089         9.35666                0               0          0.25095         6.10285                0               0
                       0.0834937         38.2383                0               0         0.950267        -86.7704                0               0
                        0.250947         6.10346                0               0         0.180826         9.36163                0               0
                        0.950259        -86.7698                0               0        0.0835591         38.3066                0               0
75.225                  0.179154         8.64126                0               0         0.253122         5.21453                0               0
                       0.0839559         36.9735                0               0         0.949436        -87.6911                0               0
                         0.25312           5.215                0               0         0.179091         8.64556                0               0
                        0.949429        -87.6904                0               0        0.0840204         37.0409                0               0
75.27                   0.177285         7.76702                0               0         0.254882         4.26169                0               0
                       0.0843554         35.5864                0               0         0.948522        -88.6986                0               0
                         0.25488         4.26202                0               0         0.177223          7.7705                0               0
                        0.948515        -88.6978                0               0         0.084419          35.653                0               0
75.315                  0.175131         6.76981                0               0         0.256272         3.23249                0               0
                       0.0846953         34.0724                0               0         0.947666         -89.788                0               0
                        0.256271         3.23271                0               0         0.175066         6.77267                0               0
                         0.94766         -89.787                0               0        0.0847583         34.1382                0               0
75.36                   0.172628         5.68999                0               0         0.257347         2.11968                0               0
                       0.0849787         32.4283                0               0         0.946977        -90.9532                0               0
                        0.257347         2.11986                0               0         0.172562         5.69256                0               0
                         0.94697        -90.9521                0               0        0.0850411         32.4933                0               0
75.405                  0.169775         4.56003                0               0         0.258159        0.920309                0               0
                       0.0852079         30.6523                0               0         0.946528        -92.1878                0               0
                         0.25816         0.92049                0               0         0.169707         4.56257                0               0
                        0.946521        -92.1865                0               0        0.0852696         30.7166                0               0
75.45                   0.166593         3.40183                0               0         0.258759       -0.364978                0               0
                       0.0853842         28.7441                0               0         0.946362        -93.4852                0               0
                         0.25876       -0.364748                0               0         0.166524         3.40451                0               0
                        0.946354        -93.4839                0               0        0.0854449         28.8077                0               0
75.495                  0.163113         2.22848                0               0         0.259188        -1.73275                0               0
                       0.0855075         26.7047                0               0         0.946497        -94.8393                0               0
                         0.25919        -1.73245                0               0         0.163044         2.23138                0               0
                        0.946488        -94.8379                0               0        0.0855669         26.7676                0               0
75.54                    0.15936         1.04688                0               0         0.259479        -3.17763                0               0
                       0.0855764         24.5365                0               0         0.946926        -96.2443                0               0
                        0.259481        -3.17724                0               0          0.15929         1.05003                0               0
                        0.946917        -96.2429                0               0        0.0856341         24.5988                0               0
75.585                  0.155353       -0.139997                0               0         0.259653        -4.69298                0               0
                       0.0855882         22.2432                0               0         0.947629        -97.6954                0               0
                        0.259656        -4.69254                0               0         0.155283       -0.136604                0               0
                        0.947619         -97.694                0               0        0.0856437          22.305                0               0
75.63                   0.151105        -1.33155                0               0         0.259724        -6.27152                0               0
                       0.0855386           19.83                0               0         0.948566        -99.1883                0               0
                        0.259726        -6.27104                0               0         0.151036        -1.32793                0               0
                        0.948557        -99.1869                0               0        0.0855914         19.8911                0               0
75.675                  0.146626        -2.52859                0               0         0.259695        -7.90568                0               0
                       0.0854225         17.3031                0               0          0.94969        -100.719                0               0
                        0.259696        -7.90523                0               0         0.146558        -2.52474                0               0
                        0.949681        -100.718                0               0        0.0854721         17.3636                0               0
75.72                    0.14192        -3.73266                0               0         0.259558        -9.58797                0               0
                       0.0852338         14.6699                0               0         0.950942        -102.286                0               0
                        0.259559        -9.58761                0               0         0.141852        -3.72861                0               0
                        0.950934        -102.285                0               0        0.0852798         14.7298                0               0
75.765                  0.136989        -4.94569                0               0         0.259301        -11.3112                0               0
                       0.0849664         11.9389                0               0         0.952256        -103.888                0               0
                        0.259301         -11.311                0               0         0.136921        -4.94144                0               0
                         0.95225        -103.886                0               0        0.0850082         11.9982                0               0
75.81                   0.131835        -6.16962                0               0           0.2589        -13.0689                0               0
                       0.0846142         9.11989                0               0         0.953565        -105.523                0               0
                          0.2589         -13.069                0               0         0.131768        -6.16518                0               0
                         0.95356        -105.521                0               0        0.0846516         9.17859                0               0
75.855                  0.126458        -7.40611                0               0         0.258326        -14.8557                0               0
                        0.084172         6.22326                0               0         0.954797        -107.192                0               0
                        0.258325        -14.8561                0               0         0.126392        -7.40146                0               0
                        0.954796        -107.191                0               0        0.0842048         6.28142                0               0
75.9                    0.120863        -8.65616                0               0         0.257539        -16.6681                0               0
                       0.0836363         3.26029                0               0         0.955893        -108.898                0               0
                        0.257538        -16.6688                0               0         0.120796         -8.6513                0               0
                        0.955894        -108.897                0               0        0.0836646         3.31797                0               0
75.945                  0.115052        -9.91958                0               0         0.256493        -18.5058                0               0
                       0.0830055        0.242697                0               0         0.956808        -110.644                0               0
                        0.256493        -18.5067                0               0         0.114985         -9.9145                0               0
                        0.956811        -110.643                0               0        0.0830295        0.299943                0               0
75.99                   0.109031        -11.1944                0               0         0.255143        -20.3731                0               0
                       0.0822808        -2.81771                0               0         0.957536        -112.437                0               0
                        0.255144        -20.3743                0               0         0.108965        -11.1891                0               0
                        0.957541        -112.435                0               0         0.082301         -2.7609                0               0
76.035                  0.102811        -12.4758                0               0         0.253453        -22.2809                0               0
                       0.0814664        -5.90954                0               0         0.958129         -114.28                0               0
                        0.253455        -22.2821                0               0         0.102744        -12.4703                0               0
                        0.958134        -114.279                0               0        0.0814835        -5.85326                0               0
76.08                  0.0963998        -13.7553                0               0          0.25142        -24.2464                0               0
                       0.0805697        -9.02248                0               0         0.958713         -116.18                0               0
                        0.251423        -24.2474                0               0        0.0963332        -13.7495                0               0
                        0.958717        -116.178                0               0        0.0805848        -8.96698                0               0
76.125                  0.089812        -15.0186                0               0         0.249097        -26.2893                0               0
                       0.0796014        -12.1481                0               0          0.95949        -118.135                0               0
                        0.249101        -26.2899                0               0        0.0897451        -15.0127                0               0
                        0.959491        -118.133                0               0        0.0796154        -12.0938                0               0
76.17                  0.0830617         -16.244                0               0         0.246601        -28.4232                0               0
                       0.0785743        -15.2808                0               0         0.960688        -120.137                0               0
                        0.246605        -28.4233                0               0        0.0829946        -16.2379                0               0
                        0.960687        -120.136                0               0        0.0785882        -15.2284                0               0
76.215                 0.0761655        -17.3988                0               0         0.244087        -30.6441                0               0
                       0.0775026        -18.4187                0               0         0.962477        -122.171                0               0
                        0.244089        -30.6439                0               0        0.0760981        -17.3923                0               0
                        0.962473        -122.169                0               0        0.0775175        -18.3692                0               0
76.26                   0.069142        -18.4342                0               0         0.241686        -32.9269                0               0
                       0.0764001        -21.5647                0               0         0.964874        -124.213                0               0
                        0.241685        -32.9267                0               0        0.0690745        -18.4274                0               0
                        0.964869        -124.212                0               0        0.0764163        -21.5193                0               0
76.305                  0.062013        -19.2773                0               0         0.239454        -35.2335                0               0
                       0.0752774        -24.7263                0               0         0.967716        -126.244                0               0
                        0.239452        -35.2335                0               0        0.0619453        -19.2699                0               0
                        0.967713        -126.242                0               0        0.0752948        -24.6863                0               0
76.35                  0.0548051        -19.8162                0               0         0.237365        -37.5263                0               0
                       0.0741394        -27.9161                0               0         0.970718        -128.248                0               0
                        0.237362        -37.5265                0               0        0.0547373        -19.8079                0               0
                        0.970717        -128.247                0               0        0.0741572        -27.8826                0               0
76.395                 0.0475542        -19.8724                0               0         0.235346        -39.7783                0               0
                       0.0729824        -31.1489                0               0         0.973568        -130.222                0               0
                        0.235343        -39.7788                0               0        0.0474863        -19.8624                0               0
                        0.973569        -130.221                0               0        0.0729991        -31.1227                0               0
76.44                  0.0403125         -19.145                0               0         0.233314         -41.975                0               0
                       0.0717929        -34.4396                0               0         0.976009        -132.168                0               0
                        0.233312        -41.9755                0               0        0.0402447        -19.1313                0               0
                        0.976012        -132.166                0               0        0.0718069        -34.4204                0               0
76.485                 0.0331665        -17.0907                0               0         0.231205        -44.1105                0               0
                       0.0705486        -37.7981                0               0         0.977868         -134.09                0               0
                        0.231204         -44.111                0               0         0.033099        -17.0693                0               0
                        0.977871        -134.088                0               0        0.0705585        -37.7848                0               0
76.53                  0.0262776        -12.6491                0               0         0.228976        -46.1836                0               0
                       0.0692226        -41.2254                0               0         0.979048        -135.994                0               0
                        0.228975        -46.1842                0               0        0.0262111        -12.6102                0               0
                        0.979051        -135.992                0               0        0.0692278        -41.2159                0               0
76.575                 0.0199953         -3.6243                0               0         0.226607         -48.195                0               0
                       0.0677898        -44.7108                0               0         0.979508        -137.884                0               0
                        0.226607        -48.1954                0               0        0.0199323        -3.54311                0               0
                        0.979511        -137.882                0               0         0.067791        -44.7027                0               0
76.62                  0.0151596          14.091                0               0         0.224094        -50.1452                0               0
                        0.066234        -48.2323                0               0         0.979244        -139.763                0               0
                        0.224094        -50.1454                0               0        0.0151081         14.2667                0               0
                        0.979247        -139.761                0               0        0.0662331        -48.2233                0               0
76.665                 0.0134494         42.3867                0               0         0.221444        -52.0341                0               0
                       0.0645532        -51.7601                0               0         0.978272        -141.631                0               0
                        0.221444        -52.0342                0               0         0.013426         42.6668                0               0
                        0.978273        -141.629                0               0        0.0645527        -51.7484                0               0
76.71                  0.0158658          68.988                0               0         0.218673        -53.8611                0               0
                       0.0627604        -55.2616                0               0         0.976617        -143.489                0               0
                        0.218673        -53.8611                0               0        0.0158743         69.2399                0               0
                        0.976618        -143.488                0               0        0.0627626        -55.2464                0               0
76.755                 0.0209587         84.5189                0               0         0.215801        -55.6251                0               0
                       0.0608802        -58.7066                0               0         0.974313        -145.336                0               0
                        0.215801        -55.6249                0               0        0.0209857         84.6981                0               0
                        0.974314        -145.334                0               0        0.0608867        -58.6878                0               0
76.8                   0.0271793         92.3276                0               0         0.212851        -57.3247                0               0
                       0.0589433        -62.0702                0               0         0.971397         -147.17                0               0
                        0.212851        -57.3243                0               0        0.0272153         92.4583                0               0
                        0.971397        -147.168                0               0        0.0589545        -62.0483                0               0
76.845                 0.0338175          96.138                0               0         0.209849        -58.9584                0               0
                       0.0569806        -65.3343                0               0          0.96791        -148.989                0               0
                        0.209849         -58.958                0               0        0.0338581         96.2402                0               0
                         0.96791        -148.987                0               0        0.0569956        -65.3101                0               0
76.89                  0.0405724         97.8379                0               0         0.206821        -60.5253                0               0
                       0.0550184        -68.4872                0               0         0.963895        -150.791                0               0
                        0.206821        -60.5249                0               0        0.0406154         97.9226                0               0
                        0.963895        -150.789                0               0        0.0550357        -68.4622                0               0
76.935                 0.0472986         98.3445                0               0         0.203795        -62.0247                0               0
                       0.0530759        -71.5232                0               0         0.959397        -152.573                0               0
                        0.203795        -62.0242                0               0        0.0473429         98.4178                0               0
                        0.959397        -152.571                0               0        0.0530933         -71.499                0               0
76.98                  0.0539151         98.1343                0               0         0.200796        -63.4566                0               0
                       0.0511638        -74.4422                0               0         0.954467        -154.334                0               0
                        0.200797        -63.4561                0               0        0.0539602         98.1999                0               0
                        0.954467        -154.332                0               0        0.0511795        -74.4211                0               0
77.025                 0.0603722          97.475                0               0         0.197852        -64.8217                0               0
                       0.0492863        -77.2506                0               0         0.949155        -156.071                0               0
                        0.197852        -64.8212                0               0        0.0604176          97.535                0               0
                        0.949156         -156.07                0               0        0.0492992        -77.2354                0               0
77.07                  0.0666372          96.527                0               0         0.194984        -66.1219                0               0
                       0.0474434        -79.9622                0               0         0.943517        -157.783                0               0
                        0.194985        -66.1214                0               0        0.0666827         96.5828                0               0
                        0.943518        -157.782                0               0        0.0474536        -79.9555                0               0
77.115                 0.0726887         95.3918                0               0         0.192217        -67.3595                0               0
                       0.0456351        -82.5981                0               0         0.937607        -159.468                0               0
                        0.192217        -67.3591                0               0        0.0727341         95.4445                0               0
                        0.937609        -159.466                0               0        0.0456435        -82.6015                0               0
77.16                  0.0785133         94.1367                0               0         0.189568        -68.5382                0               0
                       0.0438642        -85.1836                0               0         0.931483        -161.125                0               0
                        0.189569        -68.5379                0               0        0.0785585          94.187                0               0
                        0.931487        -161.123                0               0        0.0438723        -85.1975                0               0
77.205                 0.0841034         92.8076                0               0         0.187055        -69.6624                0               0