! TOUCHSTONE file generated by CST MICROWAVE STUDIO
! Date and time: Mon Jun 21 17:07:09 2021
! Project name: HIPS_d_sweep.cst
! Parameters = {a=0.735; b=0.393; d=22.1307; fmax=120; fmin=75; phi=0; theta=0}
! Header version: 2018
! Port assignment regex: !\s*Touchstone port\s*([0-9]+)\s*=\s*(CST MWS port|CST DS port)\s*([0-9]+|Zmin|Zmax)\s*\(\"(.*)\"\)(\s*mode\s*([0-9]+))?.*
! Touchstone port assignment:
! Touchstone port 1 = CST MWS port Zmin ("") mode 1
! Touchstone port 2 = CST MWS port Zmin ("") mode 2
! Touchstone port 3 = CST MWS port Zmax ("") mode 1
! Touchstone port 4 = CST MWS port Zmax ("") mode 2
! S-Parameters are not renormalized. Unphysical impedance of 0 will be written to the file.
# GHz S MA R 0
75                      0.117986        -15.3255                0               0         0.134152         163.894                0               0
                       0.0560594        -2.12504                0               0         0.982312         71.1034                0               0
                         0.13415         163.894                0               0         0.118012        -15.2432                0               0
                        0.982314         71.1027                0               0        0.0560007        -2.24249                0               0
75.045                  0.115404        -15.9651                0               0         0.137142         162.942                0               0
                       0.0565527        -3.14308                0               0         0.984457         70.4245                0               0
                        0.137141         162.942                0               0          0.11543        -15.8808                0               0
                        0.984467         70.4237                0               0        0.0564941        -3.26203                0               0
75.09                    0.11259        -16.6291                0               0         0.140039         161.964                0               0
                        0.056988        -4.22716                0               0         0.985819         69.6746                0               0
                        0.140039         161.963                0               0         0.112617        -16.5424                0               0
                        0.985835         69.6739                0               0        0.0569294        -4.34748                0               0
75.135                  0.109533        -17.3195                0               0          0.14281         160.953                0               0
                       0.0573568        -5.38641                0               0          0.98651          68.848                0               0
                        0.142809         160.952                0               0         0.109561        -17.2301                0               0
                        0.986529         68.8473                0               0        0.0572983        -5.50802                0               0
75.18                   0.106221        -18.0379                0               0         0.145416         159.904                0               0
                       0.0576511        -6.63051                0               0         0.986654         67.9401                0               0
                        0.145416         159.903                0               0         0.106251        -17.9456                0               0
                        0.986673         67.9394                0               0        0.0575925        -6.75336                0               0
75.225                  0.102643        -18.7858                0               0         0.147822         158.811                0               0
                       0.0578628        -7.96944                0               0         0.986379          66.948                0               0
                        0.147821         158.811                0               0         0.102674        -18.6901                0               0
                        0.986397         66.9474                0               0        0.0578041        -8.09356                0               0
75.27                  0.0987887         -19.564                0               0          0.14999         157.667                0               0
                       0.0579845        -9.41333                0               0         0.985813         65.8705                0               0
                         0.14999         157.667                0               0        0.0988204        -19.4645                0               0
                        0.985828           65.87                0               0        0.0579256        -9.53883                0               0
75.315                 0.0946474        -20.3727                0               0         0.151886         156.465                0               0
                       0.0580089        -10.9722                0               0         0.985077         64.7077                0               0
                        0.151886         156.464                0               0        0.0946803        -20.2687                0               0
                        0.985089         64.7072                0               0        0.0579499        -11.0992                0               0
75.36                  0.0902101        -21.2106                0               0         0.153479         155.197                0               0
                       0.0579295        -12.6554                0               0          0.98428          63.461                0               0
                        0.153478         155.196                0               0        0.0902445        -21.1015                0               0
                        0.984288         63.4604                0               0        0.0578705        -12.7843                0               0
75.405                 0.0854691        -22.0748                0               0         0.154741         153.856                0               0
                       0.0577404         -14.472                0               0         0.983514         62.1329                0               0
                         0.15474         153.855                0               0        0.0855049        -21.9597                0               0
                        0.983519         62.1322                0               0        0.0576815        -14.6031                0               0
75.45                  0.0804174        -22.9598                0               0         0.155652         152.437                0               0
                       0.0574364        -16.4296                0               0         0.982855         60.7267                0               0
                        0.155651         152.436                0               0        0.0804549        -22.8377                0               0
                        0.982857         60.7259                0               0        0.0573777        -16.5634                0               0
75.495                 0.0750501        -23.8566                0               0         0.156196         150.934                0               0
                       0.0570129        -18.5347                0               0         0.982361         59.2462                0               0
                        0.156195         150.933                0               0        0.0750893         -23.726                0               0
                         0.98236         59.2454                0               0        0.0569547        -18.6717                0               0
75.54                  0.0693639          -24.75                0               0         0.156367         149.343                0               0
                       0.0564662        -20.7922                0               0         0.982072         57.6958                0               0
                        0.156365         149.343                0               0         0.069405        -24.6093                0               0
                        0.982069         57.6949                0               0        0.0564088        -20.9331                0               0
75.585                 0.0633585        -25.6162                0               0         0.156164         147.664                0               0
                       0.0557935        -23.2052                0               0         0.982009           56.08                0               0
                        0.156162         147.664                0               0        0.0634017         -25.463                0               0
                        0.982005         56.0791                0               0        0.0557374        -23.3508                0               0
75.63                  0.0570364        -26.4167                0               0         0.155594         145.896                0               0
                        0.054993        -25.7749                0               0          0.98218         54.4034                0               0
                        0.155592         145.896                0               0        0.0570819        -26.2478                0               0
                        0.982175         54.4024                0               0        0.0549387         -25.926                0               0
75.675                 0.0504045        -27.0873                0               0         0.154669         144.041                0               0
                       0.0540642        -28.5003                0               0         0.982577         52.6703                0               0
                        0.154667         144.041                0               0         0.050453         -26.898                0               0
                        0.982572         52.6693                0               0        0.0540122         -28.658                0               0
75.72                   0.043476        -27.5156                0               0         0.153409         142.104                0               0
                       0.0530081        -31.3787                0               0         0.983183         50.8853                0               0
                        0.153407         142.104                0               0        0.0435281        -27.2992                0               0
                        0.983177         50.8843                0               0        0.0529589        -31.5441                0               0
75.765                 0.0362732        -27.4906                0               0         0.151836         140.091                0               0
                       0.0518272        -34.4053                0               0         0.983966         49.0524                0               0
                        0.151834         140.091                0               0        0.0363303        -27.2361                0               0
                        0.983962         49.0514                0               0        0.0517815        -34.5795                0               0
75.81                  0.0288365        -26.5681                0               0         0.149976          138.01                0               0
                        0.050526         -37.574                0               0         0.984892         47.1756                0               0
                        0.149974         138.009                0               0        0.0289009        -26.2573                0               0
                        0.984888         47.1746                0               0        0.0504844        -37.7583                0               0
75.855                 0.0212499        -23.6477                0               0          0.14786         135.869                0               0
                        0.049111        -40.8771                0               0         0.985915         45.2586                0               0
                        0.147858         135.869                0               0        0.0213266        -23.2475                0               0
                        0.985913         45.2577                0               0         0.049074        -41.0729                0               0
75.9                   0.0137532        -15.2072                0               0         0.145516         133.679                0               0
                       0.0475907        -44.3065                0               0         0.986989          43.305                0               0
                        0.145515         133.679                0               0        0.0138543        -14.6665                0               0
                        0.986989         43.3041                0               0        0.0475589        -44.5152                0               0
75.945                0.00751934         14.2793                0               0         0.142977         131.451                0               0
                       0.0459756        -47.8539                0               0         0.988064         41.3179                0               0
                        0.142975         131.451                0               0         0.007671         14.7112                0               0
                        0.988065         41.3171                0               0        0.0459495        -48.0769                0               0
75.99                 0.00801491         78.5431                0               0         0.140271         129.196                0               0
                       0.0442779        -51.5115                0               0         0.989088         39.3005                0               0
                         0.14027         129.196                0               0       0.00812714         77.7441                0               0
                         0.98909         39.2998                0               0        0.0442582        -51.7503                0               0
76.035                 0.0148496          104.56                0               0          0.13743         126.924                0               0
                       0.0425114         -55.273                0               0          0.99001         37.2558                0               0
                         0.13743         126.924                0               0         0.014894         103.986                0               0
                        0.990014         37.2552                0               0        0.0424985        -55.5293                0               0
76.08                  0.0230411         111.944                0               0         0.134481         124.646                0               0
                       0.0406906        -59.1344                0               0         0.990784         35.1865                0               0
                        0.134481         124.645                0               0        0.0230594         111.571                0               0
                        0.990789          35.186                0               0        0.0406851        -59.4096                0               0
76.125                 0.0315888         114.242                0               0          0.13145          122.37                0               0
                       0.0388304        -63.0945                0               0         0.991366         33.0954                0               0
                         0.13145          122.37                0               0         0.031595         113.976                0               0
                        0.991372          33.095                0               0        0.0388328        -63.3903                0               0
76.17                  0.0402578          114.59                0               0          0.12836         120.105                0               0
                       0.0369456        -67.1563                0               0          0.99172         30.9854                0               0
                        0.128359         120.105                0               0        0.0402572         114.388                0               0
                        0.991727          30.985                0               0        0.0369564        -67.4743                0               0
76.215                 0.0489456         114.004                0               0          0.12523         117.859                0               0
                         0.03505        -71.3274                0               0         0.991822         28.8592                0               0
                        0.125229         117.858                0               0        0.0489409         113.843                0               0
                        0.991829         28.8588                0               0          0.03507        -71.6693                0               0
76.26                  0.0575896         112.907                0               0         0.122078         115.635                0               0
                       0.0331564        -75.6211                0               0          0.99166         26.7198                0               0
                        0.122077         115.635                0               0        0.0575824         112.776                0               0
                        0.991666         26.7194                0               0        0.0331863        -75.9886                0               0
76.305                 0.0661479          111.51                0               0         0.118917         113.438                0               0
                       0.0312758        -80.0573                0               0         0.991241         24.5708                0               0
                        0.118916         113.438                0               0         0.066139         111.401                0               0
                        0.991246         24.5703                0               0        0.0313164        -80.4519                0               0
76.35                  0.0745944         109.932                0               0         0.115757          111.27                0               0
                       0.0294177        -84.6634                0               0         0.990596         22.4164                0               0
                        0.115757         111.269                0               0        0.0745843         109.839                0               0
                          0.9906         22.4158                0               0          0.02947        -85.0868                0               0
76.395                 0.0829191          108.24                0               0         0.112606         109.129                0               0
                       0.0275897        -89.4758                0               0         0.989786         20.2623                0               0
                        0.112605         109.129                0               0        0.0829082         108.162                0               0
                        0.989788         20.2616                0               0        0.0276548        -89.9295                0               0
76.44                  0.0911269         106.478                0               0         0.109466         107.014                0               0
                       0.0257984        -94.5417                0               0         0.988905          18.116                0               0
                        0.109465         107.014                0               0        0.0911154         106.411                0               0
                        0.988906         18.1152                0               0        0.0258778        -95.0271                0               0
76.485                 0.0992357         104.671                0               0         0.106341          104.92                0               0
                       0.0240507        -99.9221                0               0         0.988081         15.9874                0               0
                         0.10634         104.919                0               0        0.0992237         104.613                0               0
                        0.988081         15.9865                0               0        0.0241457         -100.44                0               0
76.53                    0.10727         102.834                0               0         0.103235         102.838                0               0
                       0.0223559        -105.695                0               0         0.987471          13.888                0               0
                        0.103234         102.837                0               0         0.107258         102.784                0               0
                         0.98747         13.8871                0               0        0.0224681        -106.245                0               0
76.575                  0.115249         100.979                0               0         0.100159         100.759                0               0
                       0.0207305        -111.957                0               0         0.987228         11.8274                0               0
                        0.100158         100.758                0               0         0.115236         100.937                0               0
                        0.987228         11.8266                0               0        0.0208621        -112.537                0               0
76.62                    0.12316          99.124                0               0        0.0971412         98.6778                0               0
                       0.0192063        -118.815                0               0          0.98743         9.80687                0               0
                       0.0971405         98.6773                0               0         0.123147         99.0882                0               0
                        0.987433         9.80618                0               0        0.0193596        -119.417                0               0
76.665                  0.130915          97.287                0               0        0.0942301         96.6036                0               0
                       0.0178372        -126.323                0               0         0.987916         7.81213                0               0
                       0.0942296         96.6032                0               0         0.130901          97.257                0               0
                        0.987922          7.8115                0               0        0.0180142        -126.933                0               0
76.71                   0.138319         95.4629                0               0        0.0914895         94.5814                0               0
                       0.0166821         -134.35                0               0         0.988109         5.82066                0               0
                       0.0914891         94.5812                0               0         0.138305         95.4379                0               0
                        0.988116         5.81998                0               0        0.0168834        -134.943                0               0
76.755                  0.145168         93.5932                0               0         0.088953         92.7092                0               0
                       0.0157356        -142.495                0               0         0.987171         3.82437                0               0
                       0.0889523         92.7091                0               0         0.145154         93.5727                0               0
                        0.987176         3.82359                0               0        0.0159589        -143.047                0               0
76.8                    0.151431         91.6089                0               0         0.086567         91.1114                0               0
                       0.0148854        -150.434                0               0         0.984554           1.839                0               0
                       0.0865659         91.1113                0               0         0.151418         91.5923                0               0
                        0.984556          1.8382                0               0        0.0151268        -150.932                0               0
76.845                  0.157219         89.5037                0               0        0.0842125         89.8685                0               0
                       0.0140307        -158.306                0               0         0.980295       -0.114903                0               0
                       0.0842109         89.8683                0               0         0.157207         89.4907                0               0
                        0.980294       -0.115671                0               0        0.0142877        -158.738                0               0
76.89                   0.162621         87.3244                0               0        0.0818144         88.9798                0               0
                       0.0131828        -166.429                0               0          0.97477        -2.02821                0               0
                       0.0818126         88.9795                0               0         0.162611         87.3148                0               0
                        0.974769        -2.02896                0               0        0.0134533        -166.773                0               0
76.935                  0.167656          85.123                0               0        0.0794044          88.397                0               0
                        0.012407        -174.927                0               0         0.968388        -3.90174                0               0
                       0.0794026         88.3967                0               0         0.167648         85.1166                0               0
                        0.968387        -3.90249                0               0        0.0126881        -175.152                0               0
76.98                   0.172315         82.9365                0               0        0.0770819         88.0641                0               0
                       0.0117561         176.284                0               0         0.961459        -5.73946                0               0
                       0.0770803         88.0638                0               0         0.172309         82.9332                0               0
                        0.961459        -5.74025                0               0        0.0120441         176.207                0               0
77.025                   0.17659         80.7882                0               0        0.0749493         87.9265                0               0
                        0.011256         167.393                0               0         0.954199        -7.54484                0               0
                       0.0749479         87.9263                0               0         0.176586         80.7877                0               0
                          0.9542        -7.54568                0               0        0.0115464         167.489                0               0
77.07                   0.180487         78.6917                0               0        0.0730752          87.929                0               0
                       0.0109111         158.627                0               0         0.946753        -9.31994                0               0
                       0.0730739          87.929                0               0         0.180484         78.6939                0               0
                        0.946755        -9.32083                0               0        0.0111997         158.905                0               0
77.115                  0.184019         76.6546                0               0        0.0714865         88.0172                0               0
                       0.0107122         150.195                0               0         0.939224        -11.0658                0               0
                       0.0714853         88.0172                0               0         0.184018         76.6594                0               0
                        0.939226        -11.0667                0               0         0.010995         150.652                0               0
77.16                   0.187209         74.6808                0               0        0.0701774         88.1428                0               0
                       0.0106422         142.266                0               0         0.931685        -12.7828                0               0
                       0.0701763         88.1428                0               0          0.18721          74.688                0               0
                        0.931687        -12.7837                0               0        0.0109162         142.884                0               0
77.205                  0.190082         72.7713                0               0        0.0691226         88.2687                0               0