! TOUCHSTONE file generated by CST MICROWAVE STUDIO
! Date and time: Mon Jun 21 17:07:30 2021
! Project name: HIPS_d_sweep.cst
! Parameters = {a=0.735; b=0.393; d=24.593; fmax=120; fmin=75; phi=0; theta=0}
! Header version: 2018
! Port assignment regex: !\s*Touchstone port\s*([0-9]+)\s*=\s*(CST MWS port|CST DS port)\s*([0-9]+|Zmin|Zmax)\s*\(\"(.*)\"\)(\s*mode\s*([0-9]+))?.*
! Touchstone port assignment:
! Touchstone port 1 = CST MWS port Zmin ("") mode 1
! Touchstone port 2 = CST MWS port Zmin ("") mode 2
! Touchstone port 3 = CST MWS port Zmax ("") mode 1
! Touchstone port 4 = CST MWS port Zmax ("") mode 2
! S-Parameters are not renormalized. Unphysical impedance of 0 will be written to the file.
# GHz S MA R 0
75                      0.247249         52.6543                0               0        0.0338232         39.6404                0               0
                       0.0316959         37.4778                0               0         0.967845         142.929                0               0
                       0.0338228         39.6411                0               0          0.24724          52.691                0               0
                        0.967844         142.928                0               0        0.0316865         37.5722                0               0
75.045                  0.247684         51.9408                0               0         0.030621         33.9588                0               0
                       0.0315685          38.366                0               0         0.969031         142.228                0               0
                       0.0306245         33.9601                0               0         0.247678         51.9783                0               0
                        0.969031         142.228                0               0        0.0315564         38.4572                0               0
75.09                   0.248007         51.1568                0               0        0.0273913         29.1028                0               0
                       0.0314057         39.1044                0               0         0.969653         141.441                0               0
                       0.0273967         29.1035                0               0         0.248001         51.1947                0               0
                        0.969652         141.441                0               0        0.0313926          39.194                0               0
75.135                   0.24823         50.2978                0               0        0.0243206         25.0766                0               0
                       0.0312259         39.6672                0               0         0.969822         140.566                0               0
                       0.0243259         25.0763                0               0         0.248223         50.3356                0               0
                        0.969821         140.566                0               0        0.0312131         39.7569                0               0
75.18                   0.248364         49.3604                0               0        0.0215242         21.8139                0               0
                       0.0310475         40.0348                0               0          0.96965           139.6                0               0
                       0.0215286         21.8129                0               0         0.248356         49.3977                0               0
                        0.969648           139.6                0               0         0.031036         40.1263                0               0
75.225                  0.248422          48.342                0               0        0.0190611         19.2033                0               0
                       0.0308877         40.1933                0               0         0.969239         138.546                0               0
                       0.0190639         19.2022                0               0         0.248412         48.3783                0               0
                        0.969237         138.546                0               0        0.0308782         40.2879                0               0
75.27                   0.248412         47.2408                0               0        0.0169524         17.1071                0               0
                        0.030761          40.133                0               0         0.968685         137.403                0               0
                       0.0169535         17.1065                0               0           0.2484          47.276                0               0
                        0.968683         137.403                0               0        0.0307539         40.2316                0               0
75.315                   0.24834          46.056                0               0        0.0151985          15.374                0               0
                       0.0306783         39.8477                0               0         0.968071         136.173                0               0
                        0.015198         15.3742                0               0         0.248326         46.0898                0               0
                        0.968069         136.173                0               0        0.0306737         39.9506                0               0
75.36                   0.248209         44.7875                0               0        0.0137899         13.8511                0               0
                       0.0306466         39.3329                0               0         0.967469         134.859                0               0
                        0.013788         13.8522                0               0         0.248192         44.8197                0               0
                        0.967467         134.859                0               0        0.0306445         39.4397                0               0
75.405                  0.248015         43.4357                0               0        0.0127142         12.3999                0               0
                       0.0306687         38.5851                0               0         0.966936         133.464                0               0
                       0.0127112         12.4016                0               0         0.247995         43.4662                0               0
                        0.966935         133.464                0               0        0.0306689         38.6952                0               0
75.45                    0.24775         42.0015                0               0        0.0119596         10.9172                0               0
                       0.0307429         37.6016                0               0         0.966519         131.991                0               0
                       0.0119559         10.9189                0               0         0.247729         42.0304                0               0
                        0.966517          131.99                0               0        0.0307451         37.7138                0               0
75.495                  0.247403         40.4863                0               0        0.0115164         9.35727                0               0
                       0.0308634         36.3805                0               0         0.966249         130.443                0               0
                       0.0115122         9.35817                0               0         0.247379         40.5137                0               0
                        0.966248         130.443                0               0        0.0308672         36.4935                0               0
75.54                   0.246955         38.8917                0               0        0.0113757         7.74196                0               0
                       0.0310204         34.9215                0               0         0.966149         128.825                0               0
                       0.0113715         7.74152                0               0         0.246929         38.9178                0               0
                        0.966147         128.825                0               0        0.0310252         35.0339                0               0
75.585                  0.246384         37.2199                0               0        0.0115285         6.15065                0               0
                       0.0312006         33.2267                0               0         0.966228          127.14                0               0
                       0.0115245         6.14872                0               0         0.246356         37.2448                0               0
                        0.966227         127.139                0               0        0.0312058         33.3374                0               0
75.63                   0.245663         35.4731                0               0        0.0119636         4.68804                0               0
                        0.031388         31.3019                0               0         0.966488         125.392                0               0
                       0.0119601         4.68491                0               0         0.245633         35.4971                0               0
                        0.966486         125.391                0               0        0.0313929         31.4099                0               0
75.675                  0.244761         33.6542                0               0        0.0126667         3.44534                0               0
                       0.0315646         29.1571                0               0          0.96692         123.584                0               0
                       0.0126638          3.4416                0               0          0.24473         33.6775                0               0
                        0.966917         123.583                0               0        0.0315686          29.262                0               0
75.72                   0.243646         31.7664                0               0        0.0136205          2.4733                0               0
                       0.0317121         26.8072                0               0         0.967509          121.72                0               0
                       0.0136183          2.4696                0               0         0.243613         31.7893                0               0
                        0.967506          121.72                0               0        0.0317146         26.9086                0               0
75.765                  0.242282         29.8138                0               0        0.0148051         1.77546                0               0
                       0.0318127          24.271                0               0         0.968235         119.804                0               0
                       0.0148037         1.77231                0               0         0.242248         29.8364                0               0
                         0.96823         119.804                0               0        0.0318133         24.3692                0               0
75.81                   0.240636         27.8011                0               0           0.0162         1.31744                0               0
                       0.0318511         21.5711                0               0         0.969071         117.839                0               0
                       0.0161992         1.31515                0               0         0.240601         27.8235                0               0
                        0.969066         117.839                0               0        0.0318495         21.6665                0               0
75.855                  0.238673         25.7338                0               0        0.0177842         1.04232                0               0
                       0.0318147         18.7313                0               0         0.969989         115.829                0               0
                        0.017784         1.04099                0               0         0.238638         25.7561                0               0
                        0.969983         115.829                0               0        0.0318109         18.8244                0               0
75.9                    0.236363         23.6185                0               0        0.0195378        0.884811                0               0
                       0.0316949         15.7755                0               0         0.970959         113.776                0               0
                       0.0195381        0.884384                0               0         0.236329         23.6407                0               0
                        0.970952         113.776                0               0         0.031689         15.8668                0               0
75.945                  0.233682         21.4626                0               0        0.0214426        0.781024                0               0
                       0.0314864         12.7255                0               0         0.971951         111.684                0               0
                       0.0214432        0.781347                0               0         0.233649         21.4845                0               0
                        0.971942         111.684                0               0        0.0314788         12.8154                0               0
75.99                   0.230611         19.2743                0               0        0.0234823        0.673895                0               0
                       0.0311873         9.59949                0               0         0.972934         109.555                0               0
                        0.023483        0.674771                0               0         0.230579         19.2956                0               0
                        0.972924         109.555                0               0        0.0311784         9.68819                0               0
76.035                  0.227142         17.0621                0               0        0.0256428        0.515402                0               0
                       0.0307983         6.41098                0               0         0.973885         107.392                0               0
                       0.0256435        0.516629                0               0          0.22711         17.0824                0               0
                        0.973874         107.392                0               0        0.0307885         6.49853                0               0
76.08                   0.223273         14.8345                0               0        0.0279123        0.266818                0               0
                       0.0303214         3.16821                0               0         0.974784         105.199                0               0
                        0.027913        0.268215                0               0         0.223242         14.8534                0               0
                        0.974773         105.199                0               0        0.0303111          3.2545                0               0
76.125                  0.219016         12.5991                0               0        0.0302813       -0.102062                0               0
                       0.0297592        -0.12589                0               0         0.975621         102.978                0               0
                       0.0302817       -0.100642                0               0         0.218983         12.6162                0               0
                         0.97561         102.979                0               0        0.0297486      -0.0411142                0               0
76.17                   0.214388         10.3615                0               0        0.0327419       -0.614125                0               0
                        0.029114        -3.47351                0               0         0.976395         100.733                0               0
                        0.032742       -0.612791                0               0         0.214351         10.3765                0               0
                        0.976385         100.734                0               0        0.0291034        -3.39054                0               0
76.215                  0.209411         8.12494                0               0         0.035288        -1.28623                0               0
                       0.0283877         -6.8815                0               0         0.977123         98.4678                0               0
                       0.0352878        -1.28505                0               0         0.209369          8.1375                0               0
                        0.977113         98.4679                0               0        0.0283772        -6.80063                0               0
76.26                   0.204108         5.88857                0               0        0.0379148        -2.13041                0               0
                       0.0275807         -10.361                0               0         0.977834         96.1858                0               0
                       0.0379143        -2.12942                0               0         0.204059         5.89873                0               0
                        0.977825          96.186                0               0        0.0275703        -10.2824                0               0
76.305                  0.198496         3.64759                0               0        0.0406187        -3.15488                0               0
                       0.0266929        -13.9271                0               0         0.978578         93.8931                0               0
                       0.0406179        -3.15409                0               0          0.19844         3.65547                0               0
                        0.978571         93.8932                0               0        0.0266825         -13.851                0               0
76.35                   0.192585         1.39295                0               0        0.0433975        -4.36485                0               0
                       0.0257228        -17.5991                0               0          0.97942         91.5962                0               0
                       0.0433964        -4.36424                0               0         0.192521         1.39873                0               0
                        0.979414         91.5964                0               0        0.0257122        -17.5254                0               0
76.395                  0.186368       -0.887966                0               0        0.0462505        -5.76304                0               0
                       0.0246691        -21.4008                0               0         0.980438         89.3037                0               0
                       0.0462493        -5.76254                0               0         0.186301       -0.884224                0               0
                        0.980432         89.3039                0               0        0.0246582        -21.3294                0               0
76.44                   0.179835         -3.2103                0               0        0.0491806        -7.34977                0               0
                       0.0235308         -25.362                0               0         0.981708          87.025                0               0
                       0.0491793        -7.34928                0               0         0.179768        -3.20879                0               0
                        0.981702         87.0253                0               0        0.0235193        -25.2926                0               0
76.485                  0.172977        -5.59016                0               0        0.0521959        -9.12222                0               0
                       0.0223094        -29.5205                0               0         0.983298         84.7701                0               0
                       0.0521948        -9.12158                0               0         0.172918        -5.59127                0               0
                        0.983289         84.7704                0               0        0.0222968        -29.4528                0               0
76.53                   0.165814        -8.04164                0               0        0.0553163        -11.0717                0               0
                       0.0210106        -33.9243                0               0         0.985241         82.5464                0               0
                       0.0553156        -11.0706                0               0          0.16577        -8.04541                0               0
                        0.985226         82.5469                0               0        0.0209965        -33.8581                0               0
76.575                  0.158419        -10.5678                0               0        0.0585828        -13.1747                0               0
                       0.0196484        -38.6317                0               0          0.98752         80.3552                0               0
                       0.0585825        -13.1728                0               0         0.158395         -10.573                0               0
                        0.987498          80.356                0               0        0.0196324        -38.5678                0               0
76.62                   0.150925        -13.1392                0               0        0.0620728        -15.3675                0               0
                       0.0182492           -43.7                0               0         0.990033         78.1873                0               0
                       0.0620728        -15.3639                0               0         0.150918        -13.1429                0               0
                        0.990003         78.1883                0               0        0.0182309        -43.6408                0               0
76.665                  0.143447        -15.6665                0               0        0.0658936        -17.4729                0               0
                       0.0168533        -49.1435                0               0         0.992519         76.0214                0               0
                       0.0658926        -17.4664                0               0         0.143441        -15.6666                0               0
                        0.992485         76.0228                0               0        0.0168329        -49.0944                0               0
76.71                   0.135944         -18.014                0               0        0.0699706        -19.0714                0               0
                       0.0154994        -54.8443                0               0         0.994474         73.8314                0               0
                        0.069964        -19.0626                0               0         0.135923        -18.0135                0               0
                        0.994441         73.8331                0               0        0.0154786        -54.8119                0               0
76.755                  0.128223        -20.0796                0               0        0.0732407        -19.8145                0               0
                       0.0141804        -60.4868                0               0         0.995173         71.6027                0               0
                       0.0732261        -19.8105                0               0         0.128179        -20.0852                0               0
                        0.995146         71.6044                0               0        0.0141621        -60.4722                0               0
76.8                    0.120135        -21.8435                0               0        0.0743582        -20.8989                0               0
                       0.0128064        -65.7393                0               0         0.993954         69.3471                0               0
                       0.0743482        -20.9022                0               0         0.120074        -21.8604                0               0
                        0.993936         69.3486                0               0        0.0127921        -65.7334                0               0
76.845                  0.111699        -23.3263                0               0        0.0748179        -23.4843                0               0
                       0.0112652        -70.6426                0               0         0.990599         67.0976                0               0
                       0.0748149        -23.4867                0               0         0.111629        -23.3553                0               0
                        0.990588         67.0987                0               0        0.0112536        -70.6352                0               0
76.89                   0.103049        -24.5337                0               0        0.0758908        -26.8135                0               0
                      0.00953181        -75.6757                0               0         0.985412          64.886                0               0
                       0.0758894        -26.8135                0               0         0.102972        -24.5738                0               0
                        0.985404         64.8867                0               0       0.00952078        -75.6683                0               0
76.935                 0.0943368         -25.441                0               0        0.0774106        -30.2598                0               0
                      0.00767106        -81.5263                0               0         0.978945         62.7282                0               0
                        0.077409        -30.2586                0               0        0.0942554        -25.4905                0               0
                        0.978938         62.7288                0               0       0.00766004        -81.5309                0               0
76.98                  0.0856975        -25.9966                0               0        0.0790725        -33.6651                0               0
                      0.00577408        -89.2017                0               0         0.971713         60.6257                0               0
                       0.0790704        -33.6635                0               0        0.0856109        -26.0543                0               0
                        0.971706         60.6263                0               0        0.0057638        -89.2399                0               0
77.025                 0.0772394        -26.1251                0               0         0.080708         -37.014                0               0
                      0.00393811        -101.086                0               0         0.964079         58.5727                0               0
                       0.0807058        -37.0123                0               0        0.0771472        -26.1902                0               0
                        0.964073         58.5733                0               0       0.00393019        -101.201                0               0
77.07                  0.0690527        -25.7241                0               0        0.0822355        -40.3138                0               0
                      0.00235026        -125.385                0               0         0.956266          56.562                0               0
                       0.0822333        -40.3123                0               0        0.0689542        -25.7962                0               0
                        0.956262         56.5628                0               0        0.0023485        -125.673                0               0
77.115                 0.0612183        -24.6548                0               0        0.0836159          -43.57                0               0
                      0.00172496         179.133                0               0         0.948403         54.5881                0               0
                       0.0836138        -43.5687                0               0        0.0611129        -24.7335                0               0
                        0.948401          54.589                0               0       0.00173608         178.892                0               0
77.16                  0.0538192         -22.727                0               0        0.0848318        -46.7835                0               0
                      0.00267292         133.975                0               0         0.940565          52.647                0               0
                       0.0848298        -46.7824                0               0        0.0537061        -22.8113                0               0
                        0.940565         52.6479                0               0       0.00268713         134.077                0               0
77.205                  0.046953        -19.6798                0               0        0.0858778        -49.9521                0               0