! TOUCHSTONE file generated by CST MICROWAVE STUDIO
! Date and time: Mon Jun 21 17:07:02 2021
! Project name: HIPS_d_sweep.cst
! Parameters = {a=0.735; b=0.393; d=21.4271; fmax=120; fmin=75; phi=0; theta=0}
! Header version: 2018
! Port assignment regex: !\s*Touchstone port\s*([0-9]+)\s*=\s*(CST MWS port|CST DS port)\s*([0-9]+|Zmin|Zmax)\s*\(\"(.*)\"\)(\s*mode\s*([0-9]+))?.*
! Touchstone port assignment:
! Touchstone port 1 = CST MWS port Zmin ("") mode 1
! Touchstone port 2 = CST MWS port Zmin ("") mode 2
! Touchstone port 3 = CST MWS port Zmax ("") mode 1
! Touchstone port 4 = CST MWS port Zmax ("") mode 2
! S-Parameters are not renormalized. Unphysical impedance of 0 will be written to the file.
# GHz S MA R 0
75                       0.22759         62.3656                0               0         0.161992        -117.136                0               0
                       0.0404407          133.71                0               0         0.959337         151.788                0               0
                        0.161993        -117.136                0               0          0.22759         62.3577                0               0
                        0.959336          151.79                0               0        0.0404136          133.69                0               0
75.045                  0.228717         61.6182                0               0         0.164243        -118.146                0               0
                       0.0412527         132.053                0               0         0.961764         150.899                0               0
                        0.164246        -118.147                0               0         0.228716          61.611                0               0
                        0.961763         150.901                0               0        0.0412247         132.033                0               0
75.09                   0.229783         60.8333                0               0         0.166438        -119.155                0               0
                       0.0420813         130.358                0               0          0.96382         149.998                0               0
                        0.166441        -119.156                0               0         0.229782         60.8268                0               0
                        0.963819         149.999                0               0        0.0420523         130.337                0               0
75.135                  0.230785         60.0079                0               0         0.168553        -120.162                0               0
                       0.0429239         128.623                0               0         0.965459         149.078                0               0
                        0.168558        -120.164                0               0         0.230783          60.002                0               0
                        0.965458          149.08                0               0        0.0428941         128.602                0               0
75.18                   0.231719         59.1388                0               0         0.170566        -121.168                0               0
                       0.0437772         126.847                0               0         0.966643         148.137                0               0
                        0.170572         -121.17                0               0         0.231717         59.1336                0               0
                        0.966641         148.139                0               0        0.0437467         126.824                0               0
75.225                  0.232584          58.223                0               0         0.172451        -122.174                0               0
                       0.0446372         125.025                0               0         0.967344         147.168                0               0
                        0.172457        -122.176                0               0         0.232581         58.2184                0               0
                        0.967342         147.169                0               0        0.0446062         125.002                0               0
75.27                   0.233378         57.2573                0               0         0.174179        -123.182                0               0
                       0.0454992         123.154                0               0          0.96755         146.164                0               0
                        0.174186        -123.184                0               0         0.233375         57.2534                0               0
                        0.967548         146.166                0               0        0.0454678         123.131                0               0
75.315                  0.234101         56.2388                0               0         0.175722        -124.195                0               0
                       0.0463576         121.231                0               0         0.967267          145.12                0               0
                         0.17573        -124.197                0               0         0.234098         56.2355                0               0
                        0.967265         145.121                0               0        0.0463259         121.207                0               0
75.36                   0.234755         55.1647                0               0         0.177054        -125.218                0               0
                       0.0472059         119.249                0               0         0.966524         144.028                0               0
                        0.177062        -125.219                0               0         0.234751         55.1621                0               0
                        0.966521         144.029                0               0         0.047174         119.225                0               0
75.405                  0.235341         54.0327                0               0          0.17815        -126.256                0               0
                       0.0480371         117.202                0               0         0.965369         142.882                0               0
                        0.178157        -126.257                0               0         0.235338         54.0309                0               0
                        0.965366         142.883                0               0        0.0480051         117.179                0               0
75.45                   0.235862          52.841                0               0         0.178986        -127.316                0               0
                       0.0488439         115.082                0               0         0.963875         141.676                0               0
                        0.178993        -127.318                0               0         0.235859           52.84                0               0
                        0.963871         141.678                0               0        0.0488118         115.059                0               0
75.495                  0.236322         51.5884                0               0         0.179548        -128.407                0               0
                       0.0496192         112.879                0               0         0.962131         140.406                0               0
                        0.179555        -128.408                0               0         0.236319         51.5882                0               0
                        0.962128         140.408                0               0         0.049587         112.857                0               0
75.54                   0.236721         50.2744                0               0         0.179826        -129.535                0               0
                       0.0503568         110.582                0               0         0.960241         139.069                0               0
                        0.179832        -129.536                0               0          0.23672          50.275                0               0
                        0.960238         139.071                0               0        0.0503245         110.561                0               0
75.585                  0.237064          48.899                0               0         0.179819         -130.71                0               0
                       0.0510524         108.178                0               0         0.958317         137.662                0               0
                        0.179823        -130.711                0               0         0.237062         48.9006                0               0
                        0.958313         137.664                0               0        0.0510198         108.158                0               0
75.63                   0.237347         47.4633                0               0         0.179531         -131.94                0               0
                       0.0517047         105.654                0               0         0.956467         136.186                0               0
                        0.179535         -131.94                0               0         0.237346         47.4658                0               0
                        0.956464         136.188                0               0        0.0516718         105.634                0               0
75.675                  0.237571         45.9689                0               0         0.178979         -133.23                0               0
                       0.0523166         102.997                0               0         0.954794         134.643                0               0
                        0.178981         -133.23                0               0          0.23757         45.9724                0               0
                        0.954791         134.645                0               0        0.0522831         102.978                0               0
75.72                   0.237728         44.4181                0               0         0.178182        -134.587                0               0
                       0.0528956         100.197                0               0         0.953385         133.036                0               0
                        0.178183        -134.588                0               0         0.237727         44.4226                0               0
                        0.953383         133.038                0               0        0.0528614         100.179                0               0
75.765                   0.23781         42.8137                0               0         0.177167        -136.015                0               0
                       0.0534535           97.25                0               0         0.952308         131.369                0               0
                        0.177167        -136.015                0               0          0.23781         42.8193                0               0
                        0.952305         131.371                0               0        0.0534184         97.2321                0               0
75.81                   0.237806          41.159                0               0         0.175962        -137.513                0               0
                        0.054005         94.1588                0               0         0.951606         129.649                0               0
                        0.175962        -137.513                0               0         0.237806         41.1657                0               0
                        0.951603         129.651                0               0        0.0539691         94.1408                0               0
75.855                    0.2377         39.4576                0               0         0.174599        -139.083                0               0
                       0.0545656         90.9345                0               0         0.951301         127.881                0               0
                        0.174598        -139.083                0               0         0.237701         39.4654                0               0
                        0.951298         127.882                0               0        0.0545289         90.9162                0               0
75.9                    0.237475         37.7133                0               0         0.173106        -140.719                0               0
                       0.0551476         87.5969                0               0         0.951391         126.071                0               0
                        0.173105        -140.719                0               0         0.237475         37.7222                0               0
                        0.951388         126.072                0               0        0.0551103          87.578                0               0
75.945                  0.237109         35.9301                0               0         0.171512        -142.419                0               0
                       0.0557578          84.172                0               0         0.951853         124.226                0               0
                        0.171511        -142.419                0               0         0.237109         35.9402                0               0
                        0.951851         124.227                0               0        0.0557202         84.1523                0               0
75.99                   0.236579         34.1121                0               0          0.16984        -144.174                0               0
                       0.0563953         80.6891                0               0         0.952651          122.35                0               0
                         0.16984        -144.174                0               0         0.236579         34.1233                0               0
                        0.952648         122.352                0               0        0.0563577         80.6685                0               0
76.035                  0.235863         32.2633                0               0         0.168112        -145.979                0               0
                       0.0570517         77.1771                0               0         0.953731         120.451                0               0
                        0.168112        -145.979                0               0         0.235863         32.2756                0               0
                        0.953728         120.452                0               0        0.0570141         77.1557                0               0
76.08                   0.234936         30.3878                0               0         0.166344        -147.824                0               0
                       0.0577119         73.6616                0               0         0.955033         118.532                0               0
                        0.166344        -147.824                0               0         0.234936         30.4014                0               0
                         0.95503         118.533                0               0        0.0576745         73.6395                0               0
76.125                  0.233775           28.49                0               0         0.164548        -149.702                0               0
                       0.0583568         70.1633                0               0          0.95649         116.597                0               0
                        0.164549        -149.702                0               0         0.233775         28.5047                0               0
                        0.956487         116.598                0               0        0.0583196         70.1405                0               0
76.17                   0.232358          26.574                0               0         0.162735        -151.602                0               0
                        0.058966         66.6975                0               0         0.958033          114.65                0               0
                        0.162737        -151.602                0               0         0.232357         26.5899                0               0
                         0.95803         114.652                0               0        0.0589289          66.674                0               0
76.215                  0.230664         24.6444                0               0         0.160911        -153.518                0               0
                       0.0595197         63.2749                0               0         0.959593         112.695                0               0
                        0.160913        -153.518                0               0         0.230663         24.6615                0               0
                         0.95959         112.696                0               0        0.0594826         63.2507                0               0
76.26                   0.228677         22.7057                0               0          0.15908        -155.441                0               0
                       0.0600007         59.9027                0               0         0.961103         110.733                0               0
                        0.159082        -155.441                0               0         0.228676         22.7241                0               0
                        0.961099         110.735                0               0        0.0599634         59.8777                0               0
76.305                  0.226382         20.7629                0               0         0.157245        -157.363                0               0
                       0.0603951         56.5857                0               0         0.962499         108.769                0               0
                        0.157247        -157.363                0               0         0.226381         20.7825                0               0
                        0.962495         108.771                0               0        0.0603576         56.5598                0               0
76.35                    0.22377         18.8208                0               0         0.155407        -159.278                0               0
                       0.0606927          53.327                0               0         0.963723         106.803                0               0
                         0.15541        -159.278                0               0         0.223769         18.8417                0               0
                        0.963719         106.805                0               0        0.0606549            53.3                0               0
76.395                  0.220836         16.8848                0               0         0.153569        -161.179                0               0
                       0.0608873         50.1293                0               0         0.964724         104.838                0               0
                        0.153571        -161.178                0               0         0.220835          16.907                0               0
                         0.96472          104.84                0               0         0.060849          50.101                0               0
76.44                   0.217577         14.9604                0               0         0.151729         -163.06                0               0
                       0.0609758         46.9944                0               0         0.965456         102.876                0               0
                        0.151732         -163.06                0               0         0.217576         14.9838                0               0
                        0.965452         102.878                0               0        0.0609371         46.9647                0               0
76.485                  0.213997          13.053                0               0          0.14989        -164.916                0               0
                       0.0609585         43.9243                0               0          0.96588         100.919                0               0
                        0.149892        -164.916                0               0         0.213997         13.0779                0               0
                        0.965876         100.921                0               0        0.0609192          43.893                0               0
76.53                   0.210105         11.1686                0               0         0.148052        -166.743                0               0
                       0.0608379         40.9207                0               0         0.965965         98.9689                0               0
                        0.148054        -166.743                0               0         0.210105         11.1949                0               0
                        0.965961         98.9707                0               0        0.0607981         40.8877                0               0
76.575                  0.205911         9.31307                0               0         0.146217        -168.537                0               0
                       0.0606187         37.9851                0               0         0.965688         97.0269                0               0
                        0.146218        -168.537                0               0         0.205912         9.34077                0               0
                        0.965684         97.0286                0               0        0.0605783         37.9503                0               0
76.62                   0.201433         7.49225                0               0         0.144387        -170.294                0               0
                       0.0603071          35.119                0               0         0.965032         95.0949                0               0
                        0.144387        -170.293                0               0         0.201435         7.52144                0               0
                        0.965028         95.0966                0               0        0.0602662         35.0822                0               0
76.665                  0.196689         5.71213                0               0         0.142563         -172.01                0               0
                       0.0599103         32.3233                0               0         0.963987         93.1747                0               0
                        0.142563         -172.01                0               0         0.196691         5.74285                0               0
                        0.963984         93.1765                0               0        0.0598689         32.2845                0               0
76.71                   0.191701         3.97863                0               0         0.140749        -173.683                0               0
                       0.0594364         29.5989                0               0         0.962552          91.268                0               0
                        0.140748        -173.683                0               0         0.191704         4.01091                0               0
                        0.962549         91.2697                0               0        0.0593944         29.5579                0               0
76.755                  0.186495         2.29759                0               0          0.13895         -175.31                0               0
                       0.0588936         26.9459                0               0         0.960728         89.3761                0               0
                        0.138948         -175.31                0               0         0.186499         2.33148                0               0
                        0.960726         89.3779                0               0        0.0588512         26.9028                0               0
76.8                    0.181096        0.674741                0               0         0.137168         -176.89                0               0
                       0.0582904         24.3644                0               0         0.958527         87.5008                0               0
                        0.137165         -176.89                0               0         0.181101        0.710286                0               0
                        0.958525         87.5025                0               0        0.0582474          24.319                0               0
76.845                  0.175531       -0.884271                0               0         0.135409         -178.42                0               0
                       0.0576349         21.8538                0               0         0.955963         85.6432                0               0
                        0.135405         -178.42                0               0         0.175537       -0.847025                0               0
                        0.955961         85.6449                0               0        0.0575915         21.8062                0               0
76.89                   0.169829        -2.37392                0               0         0.133678        -179.899                0               0
                       0.0569351         19.4133                0               0         0.953054         83.8046                0               0
                        0.133674        -179.899                0               0         0.169837        -2.33492                0               0
                        0.953053         83.8064                0               0        0.0568913         19.3633                0               0
76.935                  0.164018        -3.78874                0               0         0.131981         178.674                0               0
                       0.0561985         17.0415                0               0         0.949825         81.9862                0               0
                        0.131977         178.674                0               0         0.164026        -3.74795                0               0
                        0.949824          81.988                0               0        0.0561542         16.9892                0               0
76.98                   0.158124        -5.12335                0               0         0.130326         177.301                0               0
                       0.0554319         14.7369                0               0         0.946302         80.1889                0               0
                        0.130321         177.301                0               0         0.158134        -5.08071                0               0
                        0.946301         80.1906                0               0        0.0553871         14.6823                0               0
77.025                  0.152173        -6.37231                0               0         0.128719         175.981                0               0
                       0.0546416         12.4976                0               0         0.942514         78.4135                0               0
                        0.128714         175.981                0               0         0.152185        -6.32778                0               0
                        0.942513         78.4152                0               0        0.0545965         12.4407                0               0
77.07                   0.146192        -7.53012                0               0         0.127168         174.715                0               0
                       0.0538334         10.3215                0               0         0.938492         76.6606                0               0
                        0.127163         174.715                0               0         0.146205        -7.48364                0               0
                        0.938492         76.6622                0               0        0.0537879         10.2621                0               0
77.115                  0.140204        -8.59108                0               0         0.125681         173.501                0               0
                       0.0530123         8.20608                0               0         0.934269         74.9306                0               0
                        0.125676         173.502                0               0         0.140218        -8.54259                0               0
                        0.934269         74.9322                0               0        0.0529664         8.14434                0               0
77.16                    0.13423        -9.54917                0               0         0.124266          172.34                0               0
                       0.0521828         6.14894                0               0         0.929879         73.2238                0               0
                        0.124262         172.341                0               0         0.134246        -9.49862                0               0
                        0.929879         73.2254                0               0        0.0521366         6.08479                0               0
77.205                  0.128291        -10.3979                0               0         0.122933         171.229                0               0