! TOUCHSTONE file generated by CST MICROWAVE STUDIO
! Date and time: Mon Jun 21 17:07:11 2021
! Project name: HIPS_d_sweep.cst
! Parameters = {a=0.735; b=0.393; d=22.5829; fmax=120; fmin=75; phi=0; theta=0}
! Header version: 2018
! Port assignment regex: !\s*Touchstone port\s*([0-9]+)\s*=\s*(CST MWS port|CST DS port)\s*([0-9]+|Zmin|Zmax)\s*\(\"(.*)\"\)(\s*mode\s*([0-9]+))?.*
! Touchstone port assignment:
! Touchstone port 1 = CST MWS port Zmin ("") mode 1
! Touchstone port 2 = CST MWS port Zmin ("") mode 2
! Touchstone port 3 = CST MWS port Zmax ("") mode 1
! Touchstone port 4 = CST MWS port Zmax ("") mode 2
! S-Parameters are not renormalized. Unphysical impedance of 0 will be written to the file.
# GHz S MA R 0
75                      0.107276          105.95                0               0        0.0982222         105.797                0               0
                       0.0209446        -103.706                0               0         0.989148         16.9594                0               0
                       0.0982211         105.797                0               0         0.107241          106.03                0               0
                        0.989141         16.9564                0               0        0.0209253        -103.538                0               0
75.045                  0.109582         105.383                0               0         0.101251         105.076                0               0
                       0.0214258        -105.941                0               0         0.989921         16.2831                0               0
                         0.10125         105.077                0               0         0.109546         105.463                0               0
                        0.989914         16.2802                0               0        0.0214042        -105.772                0               0
75.09                   0.112076          104.69                0               0         0.104132          104.29                0               0
                       0.0218443        -108.206                0               0         0.990121         15.5255                0               0
                        0.104131         104.291                0               0          0.11204         104.769                0               0
                        0.990114         15.5226                0               0        0.0218203        -108.037                0               0
75.135                  0.114781         103.879                0               0         0.106822         103.435                0               0
                       0.0221866        -110.544                0               0         0.989854         14.6841                0               0
                        0.106821         103.437                0               0         0.114744         103.957                0               0
                        0.989846         14.6811                0               0        0.0221603        -110.376                0               0
75.18                   0.117718         102.959                0               0         0.109273         102.511                0               0
                       0.0224421        -113.002                0               0         0.989226         13.7572                0               0
                        0.109272         102.512                0               0         0.117681         103.036                0               0
                        0.989218         13.7543                0               0        0.0224136        -112.834                0               0
75.225                  0.120903         101.941                0               0         0.111442         101.513                0               0
                       0.0226034        -115.629                0               0         0.988338         12.7448                0               0
                        0.111441         101.514                0               0         0.120865         102.016                0               0
                         0.98833         12.7418                0               0        0.0225727        -115.463                0               0
75.27                   0.124346         100.835                0               0          0.11329         100.442                0               0
                       0.0226671        -118.479                0               0         0.987284         11.6474                0               0
                        0.113288         100.442                0               0         0.124308         100.907                0               0
                        0.987276         11.6445                0               0        0.0226342        -118.313                0               0
75.315                  0.128055         99.6505                0               0         0.114781         99.2956                0               0
                       0.0226344        -121.602                0               0         0.986147         10.4668                0               0
                         0.11478         99.2964                0               0         0.128016         99.7206                0               0
                        0.986139         10.4638                0               0        0.0225991        -121.438                0               0
75.36                   0.132028         98.3972                0               0          0.11589          98.076                0               0
                       0.0225111        -125.051                0               0         0.984998         9.20528                0               0
                        0.115889         98.0766                0               0          0.13199         98.4649                0               0
                        0.984989         9.20228                0               0        0.0224731        -124.887                0               0
75.405                  0.136262         97.0821                0               0           0.1166         96.7844                0               0
                       0.0223079        -128.873                0               0         0.983894         7.86589                0               0
                        0.116599          96.785                0               0         0.136224         97.1475                0               0
                        0.983885         7.86286                0               0        0.0222668        -128.711                0               0
75.45                   0.140745          95.711                0               0         0.116904         95.4239                0               0
                       0.0220398        -133.112                0               0         0.982879         6.45209                0               0
                        0.116903         95.4244                0               0         0.140707         95.7743                0               0
                         0.98287         6.44905                0               0        0.0219951         -132.95                0               0
75.495                  0.145464         94.2878                0               0         0.116804         93.9984                0               0
                        0.021726        -137.802                0               0         0.981984         4.96773                0               0
                        0.116803         93.9989                0               0         0.145426         94.3491                0               0
                        0.981974         4.96467                0               0         0.021677        -137.643                0               0
75.54                   0.150397         92.8151                0               0         0.116314         92.5131                0               0
                       0.0213891        -142.968                0               0         0.981226         3.41682                0               0
                        0.116313         92.5135                0               0         0.150359         92.8747                0               0
                        0.981216         3.41376                0               0         0.021335        -142.812                0               0
75.585                  0.155522         91.2941                0               0         0.115455         90.9736                0               0
                       0.0210541        -148.618                0               0         0.980613         1.80356                0               0
                        0.115454          90.974                0               0         0.155483         91.3521                0               0
                        0.980602         1.80048                0               0        0.0209942        -148.468                0               0
75.63                   0.160811          89.725                0               0         0.114257         89.3863                0               0
                       0.0207473        -154.743                0               0         0.980138        0.132163                0               0
                        0.114255         89.3867                0               0         0.160771         89.7816                0               0
                        0.980128        0.129078                0               0        0.0206809        -154.602                0               0
75.675                  0.166232         88.1073                0               0         0.112753         87.7578                0               0
                       0.0204949         -161.31                0               0         0.979791        -1.59317                0               0
                        0.112752         87.7584                0               0         0.166191         88.1627                0               0
                        0.979779        -1.59626                0               0        0.0204217        -161.181                0               0
75.72                    0.17175         86.4403                0               0         0.110983         86.0951                0               0
                       0.0203209         -168.26                0               0         0.979548        -3.36829                0               0
                        0.110982         86.0957                0               0         0.171708         86.4948                0               0
                        0.979536        -3.37138                0               0        0.0202407        -168.148                0               0
75.765                  0.177328         84.7235                0               0         0.108987         84.4048                0               0
                       0.0202456        -175.511                0               0         0.979383        -5.18914                0               0
                        0.108986         84.4055                0               0         0.177284         84.7772                0               0
                        0.979371        -5.19222                0               0        0.0201586         -175.42                0               0
75.81                   0.182923         82.9565                0               0         0.106805         82.6935                0               0
                       0.0202834         177.039                0               0         0.979262        -7.05178                0               0
                        0.106804         82.6943                0               0         0.182877         83.0095                0               0
                         0.97925        -7.05486                0               0          0.02019         177.106                0               0
75.855                  0.188492         81.1397                0               0         0.104476         80.9673                0               0
                       0.0204418         169.504                0               0          0.97915        -8.95241                0               0
                        0.104475         80.9681                0               0         0.188444         81.1921                0               0
                        0.979138        -8.95548                0               0        0.0203429         169.543                0               0
75.9                    0.193987         79.2741                0               0         0.102037         79.2318                0               0
                        0.020721         161.998                0               0         0.979008        -10.8873                0               0
                        0.102036         79.2327                0               0         0.193938         79.3262                0               0
                        0.978995        -10.8904                0               0        0.0206177         162.008                0               0
75.945                  0.199362          77.362                0               0        0.0995187         77.4921                0               0
                       0.0211148         154.624                0               0         0.978797         -12.853                0               0
                       0.0995177          77.493                0               0         0.199311         77.4136                0               0
                        0.978783        -12.8561                0               0        0.0210082         154.605                0               0
75.99                   0.204566         75.4066                0               0        0.0969517         75.7528                0               0
                       0.0216114         147.466                0               0         0.978475        -14.8461                0               0
                       0.0969507         75.7538                0               0         0.204515         75.4578                0               0
                        0.978461        -14.8491                0               0        0.0215027         147.419                0               0
76.035                  0.209553         73.4124                0               0        0.0943602          74.018                0               0
                       0.0221956         140.587                0               0         0.978006        -16.8633                0               0
                       0.0943592          74.019                0               0         0.209501         73.4631                0               0
                        0.977992        -16.8663                0               0        0.0220862         140.515                0               0
76.08                   0.214276         71.3851                0               0        0.0917648         72.2911                0               0
                       0.0228511         134.025                0               0         0.977354        -18.9015                0               0
                       0.0917638         72.2921                0               0         0.214224         71.4352                0               0
                        0.977339        -18.9045                0               0        0.0227419         133.931                0               0
76.125                  0.218693         69.3316                0               0        0.0891818         70.5752                0               0
                       0.0235612           127.8                0               0         0.976487        -20.9578                0               0
                       0.0891809         70.5762                0               0         0.218643         69.3809                0               0
                        0.976473        -20.9608                0               0        0.0234533         127.687                0               0
76.17                    0.22277         67.2599                0               0        0.0866241          68.873                0               0
                       0.0243109         121.913                0               0         0.975383        -23.0294                0               0
                       0.0866231         68.8739                0               0         0.222721         67.3081                0               0
                        0.975368        -23.0324                0               0        0.0242051         121.784                0               0
76.215                   0.22648         65.1787                0               0        0.0841007         67.1868                0               0
                       0.0250873         116.354                0               0         0.974025        -25.1137                0               0
                       0.0840998         67.1877                0               0         0.226431         65.2255                0               0
                         0.97401        -25.1167                0               0        0.0249841         116.212                0               0
76.26                   0.229806         63.0974                0               0         0.081618         65.5187                0               0
                       0.0258796         111.103                0               0         0.972412        -27.2083                0               0
                       0.0816171         65.5195                0               0          0.22976         63.1423                0               0
                        0.972397        -27.2113                0               0        0.0257798          110.95                0               0
76.305                   0.23275         61.0248                0               0        0.0791795         63.8706                0               0
                       0.0266798         106.135                0               0         0.970558        -29.3108                0               0
                       0.0791785         63.8714                0               0         0.232703         61.0675                0               0
                        0.970542        -29.3139                0               0        0.0265836         105.972                0               0
76.35                   0.235325         58.9691                0               0        0.0767864         62.2444                0               0
                       0.0274817          101.42                0               0         0.968504        -31.4188                0               0
                       0.0767855         62.2451                0               0         0.235278         59.0091                0               0
                        0.968488        -31.4218                0               0        0.0273894          101.25                0               0
76.395                  0.237566         56.9358                0               0        0.0744385         60.6416                0               0
                       0.0282812         96.9279                0               0         0.966326        -33.5291                0               0
                       0.0744375         60.6422                0               0         0.237517          56.973                0               0
                         0.96631        -33.5322                0               0         0.028193         96.7515                0               0
76.44                   0.239525         54.9269                0               0        0.0721339         59.0637                0               0
                       0.0290757         92.6244                0               0          0.96415        -35.6377                0               0
                       0.0721329         59.0643                0               0         0.239472         54.9612                0               0
                        0.964133        -35.6409                0               0        0.0289915         92.4425                0               0
76.485                   0.24127         52.9385                0               0        0.0698702         57.5119                0               0
                       0.0298637         88.4771                0               0         0.962162        -37.7378                0               0
                       0.0698692         57.5124                0               0          0.24121         52.9703                0               0
                        0.962145        -37.7411                0               0        0.0297832         88.2904                0               0
76.53                   0.242873         50.9606                0               0        0.0676448         55.9866                0               0
                       0.0306448         84.4547                0               0         0.960618        -39.8184                0               0
                       0.0676437         55.9872                0               0         0.242807         50.9906                0               0
                        0.960601        -39.8217                0               0        0.0305676         84.2639                0               0
76.575                  0.244406          48.978                0               0        0.0654561         54.4871                0               0
                         0.03142         80.5308                0               0         0.959817         -41.863                0               0
                       0.0654551         54.4878                0               0         0.244337         49.0072                0               0
                          0.9598        -41.8663                0               0        0.0313456          80.336                0               0
76.62                   0.245918         46.9764                0               0        0.0633057         53.0103                0               0
                        0.032192         76.6888                0               0         0.960037        -43.8516                0               0
                       0.0633047         53.0111                0               0          0.24585          47.006                0               0
                        0.960019        -43.8549                0               0        0.0321194         76.4901                0               0
76.665                  0.247417         44.9533                0               0        0.0612012         51.5494                0               0
                       0.0329638         72.9313                0               0         0.961388        -45.7711                0               0
                       0.0612002         51.5503                0               0         0.247356         44.9847                0               0
                         0.96137        -45.7743                0               0        0.0328923         72.7285                0               0
76.71                   0.248827         42.9301                0               0        0.0591632         50.0928                0               0
                       0.0337338         69.2928                0               0         0.963629        -47.6327                0               0
                       0.0591622          50.094                0               0         0.248774         42.9643                0               0
                        0.963611        -47.6357                0               0        0.0336628         69.0854                0               0
76.755                  0.249931         40.9467                0               0         0.057237         48.6271                0               0
                       0.0344794          65.844                0               0         0.965972        -49.4783                0               0
                        0.057236         48.6284                0               0         0.249882         40.9834                0               0
                        0.965955        -49.4812                0               0        0.0344092         65.6317                0               0
76.8                    0.250397         39.0286                0               0        0.0555108         47.1555                0               0
                       0.0351361         62.6614                0               0         0.967156        -51.3524                0               0
                         0.05551         47.1569                0               0         0.250348          39.066                0               0
                        0.967139        -51.3552                0               0        0.0350678         62.4455                0               0
76.845                  0.249975         37.1623                0               0         0.054121         45.7594                0               0
                       0.0356045         59.7545                0               0         0.966099         -53.259                0               0
                       0.0541205         45.7608                0               0         0.249926         37.1986                0               0
                        0.966082        -53.2618                0               0        0.0355384         59.5379                0               0
76.89                   0.248667         35.3204                0               0        0.0531722         44.6959                0               0
                       0.0358135         57.0357                0               0         0.962616        -55.1663                0               0
                       0.0531724         44.6974                0               0          0.24862         35.3552                0               0
                        0.962599        -55.1692                0               0        0.0357488           56.82                0               0
76.935                  0.246644         33.4947                0               0        0.0525242         44.3378                0               0
                       0.0357725         54.4014                0               0         0.957297         -57.045                0               0
                       0.0525253         44.3399                0               0         0.246599         33.5286                0               0
                         0.95728        -57.0479                0               0        0.0357081         54.1851                0               0
76.98                   0.244099         31.6958                0               0        0.0517857         44.7702                0               0
                       0.0355451         51.8167                0               0         0.950898        -58.8843                0               0
                        0.051787         44.7733                0               0         0.244055         31.7295                0               0
                        0.950881        -58.8871                0               0         0.035481         51.5972                0               0
77.025                  0.241185         29.9392                0               0        0.0507558         45.6637                0               0
                       0.0351986          49.309                0               0         0.943988        -60.6854                0               0
                       0.0507568         45.6671                0               0         0.241141         29.9732                0               0
                        0.943971        -60.6882                0               0        0.0351355         49.0841                0               0
77.07                   0.238009         28.2367                0               0        0.0495749         46.6949                0               0
                       0.0347835         46.9238                0               0         0.936909         -62.453                0               0
                       0.0495755         46.6979                0               0         0.237964         28.2714                0               0
                        0.936893        -62.4558                0               0        0.0347218         46.6922                0               0
77.115                  0.234645         26.5947                0               0        0.0484589         47.7403                0               0
                       0.0343353          44.696                0               0         0.929849        -64.1911                0               0
                       0.0484594         47.7426                0               0           0.2346         26.6303                0               0
                        0.929834        -64.1938                0               0        0.0342751         44.4571                0               0
77.16                   0.231149         25.0157                0               0        0.0475489         48.7744                0               0
                       0.0338793         42.6421                0               0         0.922906        -65.9026                0               0
                       0.0475492         48.7757                0               0         0.231103         25.0521                0               0
                        0.922892        -65.9053                0               0        0.0338203          42.396                0               0
77.205                  0.227559         23.4992                0               0        0.0469113         49.7774                0               0