! TOUCHSTONE file generated by CST MICROWAVE STUDIO
! Date and time: Mon Jun 21 17:06:58 2021
! Project name: HIPS_d_sweep.cst
! Parameters = {a=0.735; b=0.393; d=20.9749; fmax=120; fmin=75; phi=0; theta=0}
! Header version: 2018
! Port assignment regex: !\s*Touchstone port\s*([0-9]+)\s*=\s*(CST MWS port|CST DS port)\s*([0-9]+|Zmin|Zmax)\s*\(\"(.*)\"\)(\s*mode\s*([0-9]+))?.*
! Touchstone port assignment:
! Touchstone port 1 = CST MWS port Zmin ("") mode 1
! Touchstone port 2 = CST MWS port Zmin ("") mode 2
! Touchstone port 3 = CST MWS port Zmax ("") mode 1
! Touchstone port 4 = CST MWS port Zmax ("") mode 2
! S-Parameters are not renormalized. Unphysical impedance of 0 will be written to the file.
# GHz S MA R 0
75                     0.0706416         106.407                0               0         0.206411        -66.2332                0               0
                       0.0506283        -82.1876                0               0         0.974599        -155.211                0               0
                        0.206411        -66.2328                0               0        0.0706207         106.377                0               0
                        0.974597        -155.209                0               0        0.0506526        -82.3023                0               0
75.045                 0.0730769         106.084                0               0         0.209316        -67.1329                0               0
                       0.0508664        -83.8863                0               0         0.976576        -155.895                0               0
                        0.209314         -67.131                0               0        0.0730553         106.055                0               0
                        0.976575        -155.893                0               0        0.0508934        -84.0009                0               0
75.09                  0.0756736          105.67                0               0         0.212011        -68.0465                0               0
                       0.0510406        -85.6593                0               0         0.977793        -156.635                0               0
                        0.212008        -68.0435                0               0        0.0756513         105.641                0               0
                        0.977791        -156.632                0               0        0.0510699        -85.7736                0               0
75.135                 0.0784427         105.167                0               0         0.214462        -68.9788                0               0
                       0.0511433        -87.5165                0               0         0.978315        -157.437                0               0
                        0.214458        -68.9752                0               0        0.0784199         105.139                0               0
                        0.978311        -157.433                0               0        0.0511748        -87.6304                0               0
75.18                  0.0813952          104.58                0               0         0.216637        -69.9355                0               0
                       0.0511673        -89.4689                0               0         0.978222        -158.305                0               0
                        0.216632        -69.9315                0               0        0.0813719         104.552                0               0
                        0.978216        -158.301                0               0        0.0512008        -89.5825                0               0
75.225                 0.0845416          103.91                0               0         0.218505        -70.9226                0               0
                       0.0511064         -91.529                0               0         0.977611        -159.244                0               0
                        0.218499        -70.9186                0               0         0.084518         103.882                0               0
                        0.977602         -159.24                0               0        0.0511416        -91.6421                0               0
75.27                  0.0878918         103.163                0               0         0.220042        -71.9465                0               0
                       0.0509554        -93.7104                0               0         0.976583        -160.258                0               0
                        0.220036        -71.9428                0               0         0.087868         103.135                0               0
                        0.976573        -160.254                0               0        0.0509921         -93.823                0               0
75.315                 0.0914543         102.342                0               0         0.221228        -73.0141                0               0
                       0.0507106        -96.0276                0               0         0.975248        -161.347                0               0
                        0.221222        -73.0109                0               0        0.0914303         102.314                0               0
                        0.975237        -161.344                0               0        0.0507488        -96.1398                0               0
75.36                  0.0952358         101.453                0               0         0.222051        -74.1318                0               0
                       0.0503704        -98.4963                0               0         0.973712        -162.513                0               0
                        0.222046        -74.1291                0               0        0.0952118         101.425                0               0
                        0.973701         -162.51                0               0        0.0504099        -98.6081                0               0
75.405                 0.0992409         100.498                0               0         0.222505        -75.3056                0               0
                       0.0499352        -101.133                0               0         0.972075        -163.755                0               0
                          0.2225        -75.3036                0               0        0.0992171         100.471                0               0
                        0.972065        -163.753                0               0        0.0499761        -101.244                0               0
75.45                   0.103472         99.4836                0               0         0.222592        -76.5408                0               0
                       0.0494081        -103.953                0               0         0.970427        -165.071                0               0
                        0.222589        -76.5395                0               0         0.103448         99.4561                0               0
                         0.97042        -165.069                0               0        0.0494504        -104.064                0               0
75.495                  0.107927         98.4119                0               0          0.22232        -77.8415                0               0
                       0.0487948        -106.974                0               0         0.968846        -166.458                0               0
                        0.222318        -77.8408                0               0         0.107904         98.3845                0               0
                        0.968842        -166.456                0               0        0.0488386        -107.085                0               0
75.54                   0.112603         97.2863                0               0         0.221705        -79.2105                0               0
                       0.0481038         -110.21                0               0         0.967397        -167.913                0               0
                        0.221705        -79.2104                0               0          0.11258         97.2589                0               0
                        0.967395        -167.911                0               0        0.0481494        -110.321                0               0
75.585                  0.117492         96.1091                0               0         0.220766        -80.6492                0               0
                       0.0473466        -113.677                0               0         0.966126         -169.43                0               0
                        0.220768        -80.6495                0               0         0.117469         96.0819                0               0
                        0.966128        -169.429                0               0        0.0473941        -113.788                0               0
75.63                   0.122581         94.8823                0               0         0.219528        -82.1574                0               0
                       0.0465369        -117.386                0               0         0.965067        -171.007                0               0
                        0.219531        -82.1579                0               0         0.122559         94.8551                0               0
                        0.965071        -171.006                0               0        0.0465867        -117.496                0               0
75.675                  0.127856         93.6069                0               0         0.218017         -83.733                0               0
                        0.045691        -121.347                0               0         0.964239        -172.638                0               0
                        0.218021        -83.7338                0               0         0.127834         93.5799                0               0
                        0.964245        -172.637                0               0        0.0457432        -121.455                0               0
75.72                   0.133298          92.284                0               0         0.216261        -85.3728                0               0
                       0.0448266        -125.563                0               0         0.963645        -174.319                0               0
                        0.216265        -85.3736                0               0         0.133275         92.2571                0               0
                        0.963653        -174.317                0               0        0.0448815        -125.671                0               0
75.765                  0.138882         90.9139                0               0         0.214287        -87.0719                0               0
                        0.043963        -130.037                0               0          0.96328        -176.044                0               0
                        0.214291        -87.0727                0               0          0.13886         90.8871                0               0
                        0.963288        -176.042                0               0        0.0440209        -130.142                0               0
75.81                   0.144583          89.497                0               0         0.212123        -88.8244                0               0
                       0.0431197        -134.763                0               0         0.963126        -177.809                0               0
                        0.212127        -88.8251                0               0         0.144561         89.4704                0               0
                        0.963134        -177.808                0               0        0.0431806        -134.866                0               0
75.855                   0.15037         88.0337                0               0         0.209795        -90.6234                0               0
                        0.042316         -139.73                0               0         0.963158         -179.61                0               0
                        0.209798        -90.6239                0               0         0.150348         88.0072                0               0
                        0.963164        -179.608                0               0          0.04238        -139.828                0               0
75.9                    0.156211         86.5244                0               0         0.207328        -92.4611                0               0
                       0.0415698        -144.919                0               0         0.963345         178.558                0               0
                         0.20733        -92.4614                0               0          0.15619         86.4982                0               0
                        0.963349          178.56                0               0        0.0416368        -145.013                0               0
75.945                  0.162071         84.9702                0               0         0.204744        -94.3294                0               0
                       0.0408974        -150.306                0               0         0.963648         176.698                0               0
                        0.204745        -94.3295                0               0          0.16205          84.944                0               0
                         0.96365           176.7                0               0        0.0409672        -150.395                0               0
75.99                   0.167912         83.3722                0               0         0.202064        -96.2199                0               0
                       0.0403118         -155.86                0               0          0.96403         174.815                0               0
                        0.202064        -96.2198                0               0         0.167891         83.3462                0               0
                        0.964028         174.817                0               0        0.0403842        -155.942                0               0
76.035                  0.173697         81.7323                0               0         0.199307        -98.1242                0               0
                       0.0398232        -161.545                0               0         0.964448         172.912                0               0
                        0.199306        -98.1238                0               0         0.173676         81.7064                0               0
                        0.964442         172.914                0               0        0.0398976        -161.619                0               0
76.08                   0.179385         80.0529                0               0         0.196491        -100.034                0               0
                       0.0394377        -167.319                0               0         0.964859         170.991                0               0
                        0.196488        -100.033                0               0         0.179365         80.0272                0               0
                         0.96485         170.993                0               0        0.0395137        -167.386                0               0
76.125                   0.18494         78.3371                0               0          0.19363        -101.941                0               0
                       0.0391577        -173.142                0               0         0.965222         169.057                0               0
                        0.193626         -101.94                0               0          0.18492         78.3116                0               0
                         0.96521          169.06                0               0        0.0392347        -173.201                0               0
76.17                   0.190324         76.5885                0               0         0.190741        -103.837                0               0
                       0.0389817        -178.972                0               0         0.965497         167.113                0               0
                        0.190736        -103.837                0               0         0.190305          76.563                0               0
                        0.965482         167.115                0               0        0.0390592        -179.022                0               0
76.215                  0.195503         74.8112                0               0         0.187836        -105.717                0               0
                       0.0389051         175.232                0               0         0.965646         165.161                0               0
                         0.18783        -105.716                0               0         0.195484         74.7857                0               0
                        0.965628         165.163                0               0        0.0389824         175.189                0               0
76.26                   0.200444         73.0095                0               0         0.184927        -107.572                0               0
                       0.0389204         169.504                0               0         0.965635         163.203                0               0
                        0.184922        -107.571                0               0         0.200425         72.9842                0               0
                        0.965615         163.205                0               0        0.0389968         169.469                0               0
76.305                   0.20512         71.1885                0               0         0.182028        -109.398                0               0
                        0.039018         163.876                0               0         0.965431         161.243                0               0
                        0.182023        -109.397                0               0         0.205102         71.1631                0               0
                         0.96541         161.245                0               0        0.0390931         163.849                0               0
76.35                   0.209506         69.3528                0               0         0.179149        -111.188                0               0
                        0.039187         158.373                0               0         0.965008         159.284                0               0
                        0.179144        -111.187                0               0         0.209488         69.3275                0               0
                        0.964987         159.286                0               0        0.0392602         158.352                0               0
76.395                  0.213583         67.5075                0               0         0.176301        -112.939                0               0
                       0.0394157         153.013                0               0         0.964344         157.327                0               0
                        0.176296        -112.938                0               0         0.213566         67.4821                0               0
                        0.964325         157.329                0               0        0.0394867         152.998                0               0
76.44                   0.217337         65.6573                0               0         0.173493        -114.646                0               0
                       0.0396925          147.81                0               0          0.96342         155.375                0               0
                        0.173489        -114.645                0               0         0.217321         65.6319                0               0
                        0.963403         155.377                0               0        0.0397608           147.8                0               0
76.485                  0.220757         63.8066                0               0         0.170736        -116.306                0               0
                       0.0400058         142.773                0               0         0.962224         153.431                0               0
                        0.170733        -116.306                0               0         0.220742         63.7811                0               0
                        0.962211         153.433                0               0        0.0400711         142.768                0               0
76.53                   0.223839         61.9595                0               0         0.168037        -117.918                0               0
                       0.0403449         137.906                0               0         0.960748         151.497                0               0
                        0.168035        -117.917                0               0         0.223824         61.9339                0               0
                        0.960739         151.499                0               0        0.0404069         137.904                0               0
76.575                  0.226579         60.1195                0               0         0.165406        -119.477                0               0
                       0.0406998         133.209                0               0         0.958986         149.575                0               0
                        0.165405        -119.477                0               0         0.226565         60.0939                0               0
                        0.958984         149.577                0               0        0.0407584          133.21                0               0
76.62                    0.22898         58.2897                0               0          0.16285        -120.984                0               0
                       0.0410616          128.68                0               0         0.956941         147.668                0               0
                         0.16285        -120.984                0               0         0.228966          58.264                0               0
                        0.956945         147.671                0               0        0.0411166         128.683                0               0
76.665                  0.231044         56.4726                0               0         0.160376        -122.438                0               0
                       0.0414222         124.317                0               0         0.954615         145.779                0               0
                        0.160378        -122.438                0               0         0.231031         56.4468                0               0
                        0.954626         145.781                0               0        0.0414735         124.321                0               0
76.71                   0.232778         54.6703                0               0         0.157992        -123.838                0               0
                       0.0417745         120.113                0               0         0.952017         143.909                0               0
                        0.157994        -123.838                0               0         0.232764         54.6444                0               0
                        0.952035         143.912                0               0        0.0418221         120.119                0               0
76.755                  0.234186         52.8844                0               0         0.155702        -125.184                0               0
                       0.0421125         116.064                0               0         0.949154         142.061                0               0
                        0.155706        -125.185                0               0         0.234173         52.8585                0               0
                        0.949178         142.064                0               0        0.0421563         116.071                0               0
76.8                    0.235276         51.1165                0               0         0.153513        -126.478                0               0
                       0.0424308         112.164                0               0         0.946037         140.237                0               0
                        0.153517        -126.478                0               0         0.235263         51.0906                0               0
                        0.946066          140.24                0               0        0.0424709         112.172                0               0
76.845                  0.236053         49.3678                0               0         0.151429         -127.72                0               0
                       0.0427252         108.408                0               0         0.942675         138.439                0               0
                        0.151434        -127.721                0               0         0.236041         49.3419                0               0
                        0.942708         138.442                0               0        0.0427616         108.416                0               0
76.89                   0.236524           47.64                0               0         0.149454        -128.912                0               0
                        0.042992          104.79                0               0         0.939077         136.669                0               0
                         0.14946        -128.913                0               0         0.236512          47.614                0               0
                        0.939112         136.673                0               0        0.0430249         104.798                0               0
76.935                  0.236695         45.9346                0               0         0.147593        -130.057                0               0
                       0.0432288         101.307                0               0         0.935251         134.928                0               0
                        0.147599        -130.058                0               0         0.236684         45.9087                0               0
                        0.935284         134.933                0               0        0.0432582         101.314                0               0
76.98                   0.236574         44.2537                0               0         0.145847        -131.157                0               0
                       0.0434339         97.9541                0               0           0.9312         133.218                0               0
                        0.145853        -131.158                0               0         0.236563         44.2278                0               0
                         0.93123         133.223                0               0        0.0434599         97.9608                0               0
77.025                  0.236167         42.5998                0               0          0.14422        -132.214                0               0
                       0.0436066         94.7293                0               0         0.926929         131.539                0               0
                        0.144226        -132.215                0               0         0.236157         42.5739                0               0
                        0.926953         131.544                0               0        0.0436294         94.7352                0               0
77.07                   0.235487         40.9755                0               0         0.142712        -133.232                0               0
                       0.0437474         91.6298                0               0         0.922444         129.891                0               0
                        0.142717        -133.233                0               0         0.235477         40.9497                0               0
                         0.92246         129.896                0               0         0.043767         91.6347                0               0
77.115                  0.234545          39.384                0               0         0.141325        -134.214                0               0
                       0.0438576         88.6537                0               0         0.917752         128.273                0               0
                         0.14133        -134.215                0               0         0.234536         39.3582                0               0
                        0.917761         128.278                0               0        0.0438742         88.6574                0               0
77.16                   0.233359         37.8282                0               0         0.140059        -135.164                0               0
                         0.04394          85.799                0               0         0.912869         126.684                0               0
                        0.140063        -135.165                0               0          0.23335         37.8025                0               0
                        0.912871         126.688                0               0        0.0439537         85.8014                0               0
77.205                  0.231947          36.311                0               0         0.138913        -136.086                0               0