! TOUCHSTONE file generated by CST MICROWAVE STUDIO
! Date and time: Mon Jun 21 17:07:26 2021
! Project name: HIPS_d_sweep.cst
! Parameters = {a=0.735; b=0.393; d=24.1407; fmax=120; fmin=75; phi=0; theta=0}
! Header version: 2018
! Port assignment regex: !\s*Touchstone port\s*([0-9]+)\s*=\s*(CST MWS port|CST DS port)\s*([0-9]+|Zmin|Zmax)\s*\(\"(.*)\"\)(\s*mode\s*([0-9]+))?.*
! Touchstone port assignment:
! Touchstone port 1 = CST MWS port Zmin ("") mode 1
! Touchstone port 2 = CST MWS port Zmin ("") mode 2
! Touchstone port 3 = CST MWS port Zmax ("") mode 1
! Touchstone port 4 = CST MWS port Zmax ("") mode 2
! S-Parameters are not renormalized. Unphysical impedance of 0 will be written to the file.
# GHz S MA R 0
75                      0.118477         105.184                0               0       0.00531999         97.2226                0               0
                       0.0062468         99.8631                0               0         0.992921        -164.805                0               0
                      0.00532024         97.2212                0               0         0.118497         105.164                0               0
                        0.992923        -164.805                0               0       0.00625666         98.9846                0               0
75.045                  0.120584         104.487                0               0       0.00114701         76.3127                0               0
                      0.00565256         103.573                0               0         0.992672        -165.516                0               0
                      0.00114332         76.1628                0               0         0.120604         104.466                0               0
                        0.992674        -165.515                0               0       0.00565518         102.595                0               0
75.09                   0.123049         103.692                0               0       0.00262414        -64.4041                0               0
                      0.00526204         107.554                0               0         0.992371         -166.32                0               0
                      0.00262739        -64.4025                0               0         0.123069         103.672                0               0
                        0.992374        -166.319                0               0       0.00525681         106.499                0               0
75.135                  0.125862         102.803                0               0       0.00564791        -70.7964                0               0
                      0.00506776          111.42                0               0         0.992016        -167.217                0               0
                      0.00564767        -70.7941                0               0         0.125884         102.781                0               0
                        0.992019        -167.216                0               0       0.00505466         110.325                0               0
75.18                   0.129013          101.82                0               0       0.00824615        -72.9584                0               0
                      0.00505606         114.709                0               0         0.991605        -168.206                0               0
                      0.00824252        -72.9584                0               0         0.129035         101.798                0               0
                        0.991608        -168.205                0               0       0.00503582         113.615                0               0
75.225                  0.132487         100.746                0               0         0.010453        -74.4549                0               0
                      0.00520863         117.041                0               0         0.991136        -169.286                0               0
                        0.010447        -74.4555                0               0          0.13251         100.724                0               0
                        0.991139        -169.285                0               0       0.00518259         115.983                0               0
75.27                   0.136266         99.5831                0               0        0.0122932        -75.8045                0               0
                      0.00550618         118.227                0               0         0.990608        -170.453                0               0
                       0.0122858         -75.805                0               0          0.13629          99.561                0               0
                        0.990612        -170.452                0               0       0.00547598         117.227                0               0
75.315                  0.140331         98.3342                0               0        0.0137788        -77.1321                0               0
                      0.00593173         118.276                0               0         0.990023        -171.707                0               0
                       0.0137712        -77.1318                0               0         0.140355         98.3117                0               0
                        0.990026        -171.706                0               0         0.005899         117.343                0               0
75.36                   0.144659         97.0015                0               0        0.0149149        -78.4612                0               0
                        0.006472         117.326                0               0         0.989381        -173.045                0               0
                       0.0149078        -78.4603                0               0         0.144684         96.9786                0               0
                        0.989384        -173.044                0               0       0.00643816         116.461                0               0
75.405                  0.149225         95.5876                0               0        0.0157039        -79.7794                0               0
                      0.00711702         115.569                0               0         0.988683        -174.464                0               0
                       0.0156978        -79.7778                0               0          0.14925         95.5643                0               0
                        0.988687        -174.463                0               0       0.00708324         114.769                0               0
75.45                   0.154001         94.0952                0               0        0.0161491        -81.0565                0               0
                      0.00785896         113.198                0               0         0.987932        -175.961                0               0
                       0.0161443        -81.0544                0               0         0.154027         94.0715                0               0
                        0.987936         -175.96                0               0       0.00782612         112.459                0               0
75.495                  0.158959         92.5276                0               0         0.016257        -82.2504                0               0
                      0.00869083         110.382                0               0         0.987131        -177.533                0               0
                       0.0162535        -82.2479                0               0         0.158985         92.5033                0               0
                        0.987135        -177.532                0               0       0.00865959         109.697                0               0
75.54                   0.164065         90.8879                0               0        0.0160391        -83.3075                0               0
                      0.00960556         107.254                0               0         0.986283        -179.176                0               0
                       0.0160366        -83.3048                0               0         0.164092         90.8631                0               0
                        0.986287        -179.175                0               0       0.00957641         106.619                0               0
75.585                  0.169288         89.1797                0               0        0.0155123        -84.1589                0               0
                       0.0105955         103.916                0               0         0.985392         179.113                0               0
                       0.0155108        -84.1561                0               0         0.169315         89.1544                0               0
                        0.985396         179.114                0               0        0.0105688         103.324                0               0
75.63                   0.174593         87.4069                0               0        0.0146996        -84.7123                0               0
                       0.0116521          100.44                0               0         0.984461         177.339                0               0
                       0.0146987        -84.7093                0               0          0.17462          87.381                0               0
                        0.984465          177.34                0               0        0.0116281         99.8877                0               0
75.675                  0.179943         85.5736                0               0        0.0136297         -84.836                0               0
                        0.012766         96.8806                0               0         0.983495         175.506                0               0
                       0.0136291        -84.8327                0               0         0.179971         85.5471                0               0
                        0.983499         175.507                0               0        0.0127448         96.3624                0               0
75.72                   0.185305         83.6841                0               0        0.0123374        -84.3291                0               0
                       0.0139271         93.2738                0               0         0.982499         173.618                0               0
                       0.0123369        -84.3253                0               0         0.185333          83.657                0               0
                        0.982503         173.619                0               0        0.0139088         92.7859                0               0
75.765                  0.190641         81.7427                0               0        0.0108652        -82.8617                0               0
                       0.0151247         89.6459                0               0         0.981476         171.681                0               0
                       0.0108648         -82.857                0               0          0.19067          81.715                0               0
                        0.981481         171.682                0               0        0.0151094         89.1844                0               0
75.81                   0.195916         79.7541                0               0       0.00926864        -79.8527                0               0
                       0.0163479         86.0148                0               0         0.980434         169.698                0               0
                      0.00926833        -79.8468                0               0         0.195945         79.7257                0               0
                        0.980439         169.699                0               0        0.0163356         85.5765                0               0
75.855                  0.201096          77.723                0               0       0.00762966        -74.2145                0               0
                       0.0175856         82.3932                0               0         0.979378         167.674                0               0
                      0.00762948        -74.2069                0               0         0.201125          77.694                0               0
                        0.979383         167.675                0               0        0.0175764          81.975                0               0
75.9                    0.206147         75.6541                0               0       0.00609332         -63.885                0               0
                        0.018827         78.7897                0               0         0.978315         165.614                0               0
                      0.00609341        -63.8756                0               0         0.206177         75.6243                0               0
                         0.97832         165.615                0               0        0.0188209         78.3889                0               0
75.945                  0.211039          73.552                0               0        0.0049493        -45.7482                0               0
                       0.0200615         75.2102                0               0         0.977252         163.524                0               0
                       0.0049498        -45.7395                0               0         0.211069         73.5215                0               0
                        0.977257         163.525                0               0        0.0200585         74.8245                0               0
75.99                   0.215741         71.4212                0               0       0.00466956        -19.9627                0               0
                       0.0212793         71.6587                0               0         0.976196         161.406                0               0
                      0.00467033        -19.9607                0               0         0.215771           71.39                0               0
                        0.976202         161.407                0               0        0.0212794          71.286                0               0
76.035                  0.220227         69.2663                0               0       0.00549661         3.68327                0               0
                       0.0224708         68.1374                0               0         0.975157         159.266                0               0
                      0.00549721           3.678                0               0         0.220257         69.2343                0               0
                        0.975164         159.267                0               0         0.022474         67.7759                0               0
76.08                   0.224472         67.0915                0               0        0.0071112         18.6263                0               0
                       0.0236274         64.6477                0               0         0.974145         157.107                0               0
                      0.00711132         18.6185                0               0         0.224502         67.0586                0               0
                        0.974152         157.108                0               0        0.0236337         64.2957                0               0
76.125                  0.228453         64.9008                0               0       0.00913545         26.9268                0               0
                       0.0247411         61.1897                0               0          0.97317         154.934                0               0
                      0.00913503          26.919                0               0         0.228483         64.8671                0               0
                        0.973176         154.935                0               0        0.0247504         60.8457                0               0
76.17                   0.232151         62.6979                0               0         0.011368         31.4369                0               0
                       0.0258043         57.7631                0               0         0.972241          152.75                0               0
                       0.0113671         31.4297                0               0         0.232182         62.6634                0               0
                        0.972248         152.751                0               0        0.0258169         57.4256                0               0
76.215                   0.23555         60.4866                0               0        0.0137139         33.7959                0               0
                       0.0268105         54.3668                0               0          0.97137         150.558                0               0
                       0.0137125         33.7893                0               0          0.23558         60.4512                0               0
                        0.971376         150.559                0               0        0.0268262         54.0346                0               0
76.26                   0.238632         58.2702                0               0        0.0161245         34.8599                0               0
                       0.0277532         50.9996                0               0         0.970565         148.362                0               0
                       0.0161228         34.8539                0               0         0.238663         58.2337                0               0
                        0.970572         148.363                0               0        0.0277721         50.6714                0               0
76.305                  0.241387         56.0516                0               0        0.0185722          35.092                0               0
                       0.0286267         47.6601                0               0         0.969836         146.164                0               0
                       0.0185704         35.0866                0               0         0.241417         56.0143                0               0
                        0.969843         146.165                0               0        0.0286489         47.3349                0               0
76.35                     0.2438         53.8341                0               0        0.0210395         34.7582                0               0
                       0.0294256         44.3472                0               0         0.969186         143.967                0               0
                       0.0210378         34.7534                0               0          0.24383         53.7957                0               0
                        0.969193         143.968                0               0        0.0294512         44.0239                0               0
76.395                  0.245863         51.6203                0               0        0.0235142         34.0208                0               0
                       0.0301448         41.0601                0               0         0.968616         141.773                0               0
                       0.0235128         34.0166                0               0         0.245893         51.5808                0               0
                        0.968623         141.774                0               0        0.0301738         40.7375                0               0
76.44                   0.247566         49.4131                0               0        0.0259867         32.9847                0               0
                       0.0307794         37.7986                0               0         0.968118         139.586                0               0
                       0.0259857         32.9812                0               0         0.247595         49.3726                0               0
                        0.968125         139.587                0               0        0.0308119         37.4758                0               0
76.485                  0.248899         47.2154                0               0        0.0284482          31.722                0               0
                       0.0313249         34.5636                0               0         0.967676         137.408                0               0
                        0.028448         31.7194                0               0         0.248928         47.1737                0               0
                        0.967684         137.408                0               0         0.031361         34.2396                0               0
76.53                   0.249854         45.0301                0               0        0.0308897         30.2855                0               0
                        0.031777         31.3573                0               0          0.96726         135.241                0               0
                       0.0308903          30.284                0               0         0.249883         44.9873                0               0
                        0.967268         135.242                0               0        0.0318167         31.0311                0               0
76.575                  0.250421         42.8606                0               0        0.0332997          28.716                0               0
                       0.0321315         28.1839                0               0         0.966823         133.089                0               0
                       0.0333013         28.7159                0               0          0.25045         42.8166                0               0
                        0.966832          133.09                0               0        0.0321749         27.8545                0               0
76.62                   0.250593         40.7102                0               0        0.0356629          27.046                0               0
                       0.0323847         25.0492                0               0           0.9663         130.955                0               0
                       0.0356654         27.0477                0               0         0.250621          40.665                0               0
                        0.966309         130.956                0               0        0.0324319         24.7158                0               0
76.665                  0.250359         38.5829                0               0        0.0379573         25.3012                0               0
                        0.032533         21.9617                0               0         0.965603         128.842                0               0
                       0.0379605         25.3049                0               0         0.250388         38.5363                0               0
                        0.965613         128.843                0               0        0.0325839         21.6234                0               0
76.71                   0.249713         36.4827                0               0        0.0401518         23.4971                0               0
                       0.0325728         18.9325                0               0         0.964628         126.754                0               0
                       0.0401551         23.5028                0               0         0.249741         36.4349                0               0
                        0.964639         126.754                0               0        0.0326275         18.5884                0               0
76.755                  0.248646         34.4142                0               0        0.0422056         21.6333                0               0
                       0.0325006         15.9748                0               0         0.963258         124.691                0               0
                       0.0422081         21.6407                0               0         0.248673          34.365                0               0
                        0.963269         124.691                0               0         0.032559         15.6243                0               0
76.8                    0.247154         32.3822                0               0        0.0440734         19.6848                0               0
                       0.0323125         13.1037                0               0         0.961375         122.655                0               0
                       0.0440744         19.6929                0               0          0.24718         32.3316                0               0
                        0.961386         122.656                0               0        0.0323743          12.746                0               0
76.845                  0.245237         30.3913                0               0        0.0457208         17.5983                0               0
                       0.0320045         10.3345                0               0         0.958874         120.647                0               0
                         0.04572         17.6055                0               0         0.245262         30.3393                0               0
                        0.958885         120.647                0               0        0.0320694           9.969                0               0
76.89                   0.242898         28.4464                0               0        0.0471469         15.3045                0               0
                       0.0315728         7.68038                0               0         0.955684         118.664                0               0
                       0.0471448         15.3095                0               0         0.242921         28.3929                0               0
                        0.955694         118.665                0               0        0.0316402         7.30612                0               0
76.935                  0.240149         26.5521                0               0        0.0483981          12.752                0               0
                       0.0310154         5.14989                0               0         0.951772         116.707                0               0
                       0.0483959         12.7542                0               0         0.240171         26.4971                0               0
                        0.951782         116.708                0               0        0.0310844         4.76565                0               0
76.98                    0.23701         24.7124                0               0        0.0495518         9.94164                0               0
                       0.0303339         2.74561                0               0         0.947155         114.773                0               0
                       0.0495506          9.9418                0               0          0.23703         24.6559                0               0
                        0.947164         114.773                0               0        0.0304039         2.34965                0               0
77.025                   0.23351         22.9312                0               0        0.0506785         6.92994                0               0
                       0.0295364        0.465189                0               0         0.941895         112.861                0               0
                       0.0506787         6.92918                0               0         0.233527         22.8732                0               0
                        0.941903         112.861                0               0        0.0296067       0.0552763                0               0
77.07                   0.229687         21.2117                0               0        0.0518144          3.7989                0               0
                       0.0286377        -1.69462                0               0         0.936086          110.97                0               0
                       0.0518158         3.79812                0               0         0.229701         21.1521                0               0
                        0.936093         110.971                0               0        0.0287078        -2.12102                0               0
77.115                  0.225584         19.5565                0               0        0.0529604        0.622266                0               0
                       0.0276582        -3.73297                0               0         0.929844         109.102                0               0
                       0.0529623        0.621899                0               0         0.225595         19.4952                0               0
                        0.929851         109.103                0               0        0.0277278        -4.17842                0               0
77.16                   0.221251         17.9676                0               0        0.0540969        -2.54975                0               0
                       0.0266207        -5.64167                0               0         0.923294         107.258                0               0
                       0.0540989        -2.54969                0               0         0.221259         17.9046                0               0
                          0.9233         107.258                0               0        0.0266897        -6.10863                0               0
77.205                  0.216739         16.4461                0               0        0.0551995        -5.68921                0               0