! TOUCHSTONE file generated by CST MICROWAVE STUDIO
! Date and time: Mon Jun 21 17:06:55 2021
! Project name: HIPS_d_sweep.cst
! Parameters = {a=0.735; b=0.393; d=20.6734; fmax=120; fmin=75; phi=0; theta=0}
! Header version: 2018
! Port assignment regex: !\s*Touchstone port\s*([0-9]+)\s*=\s*(CST MWS port|CST DS port)\s*([0-9]+|Zmin|Zmax)\s*\(\"(.*)\"\)(\s*mode\s*([0-9]+))?.*
! Touchstone port assignment:
! Touchstone port 1 = CST MWS port Zmin ("") mode 1
! Touchstone port 2 = CST MWS port Zmin ("") mode 2
! Touchstone port 3 = CST MWS port Zmax ("") mode 1
! Touchstone port 4 = CST MWS port Zmax ("") mode 2
! S-Parameters are not renormalized. Unphysical impedance of 0 will be written to the file.
# GHz S MA R 0
75                     0.0792291        -16.5576                0               0         0.230179        -27.6792                0               0
                       0.0750396        -14.8896                0               0         0.967011        -119.206                0               0
                         0.23018        -27.6795                0               0        0.0792749        -16.4438                0               0
                        0.967011        -119.205                0               0        0.0749784        -14.9536                0               0
75.045                 0.0770673        -16.6029                0               0         0.233479        -28.4111                0               0
                       0.0754872         -15.874                0               0         0.966786        -119.828                0               0
                         0.23348        -28.4112                0               0        0.0771151        -16.4846                0               0
                        0.966786        -119.827                0               0        0.0754253        -15.9374                0               0
75.09                  0.0746864        -16.5974                0               0         0.236627        -29.1727                0               0
                       0.0758352         -16.928                0               0         0.966143        -120.534                0               0
                        0.236627        -29.1727                0               0         0.074737        -16.4737                0               0
                        0.966143        -120.533                0               0        0.0757727        -16.9909                0               0
75.135                 0.0720781        -16.5334                0               0         0.239581        -29.9701                0               0
                       0.0760772         -18.064                0               0         0.965204        -121.326                0               0
                        0.239582        -29.9704                0               0        0.0721324        -16.4033                0               0
                        0.965204        -121.324                0               0         0.076014        -18.1267                0               0
75.18                  0.0692356        -16.3997                0               0         0.242301        -30.8108                0               0
                       0.0762084        -19.2947                0               0         0.964084        -122.202                0               0
                        0.242302        -30.8116                0               0        0.0692945        -16.2622                0               0
                        0.964084          -122.2                0               0        0.0761447        -19.3573                0               0
75.225                 0.0661544        -16.1805                0               0         0.244746        -31.7028                0               0
                       0.0762259        -20.6328                0               0         0.962889        -123.162                0               0
                        0.244748        -31.7042                0               0        0.0662188        -16.0342                0               0
                        0.962889         -123.16                0               0        0.0761619        -20.6954                0               0
75.27                  0.0628319        -15.8532                0               0         0.246882        -32.6548                0               0
                        0.076129        -22.0908                0               0          0.96171        -124.204                0               0
                        0.246884         -32.657                0               0        0.0629027        -15.6967                0               0
                         0.96171        -124.202                0               0        0.0760647        -22.1536                0               0
75.315                 0.0592687        -15.3857                0               0         0.248676        -33.6757                0               0
                       0.0759184        -23.6806                0               0         0.960627        -125.324                0               0
                         0.24868        -33.6787                0               0        0.0593469         -15.217                0               0
                        0.960627        -125.323                0               0        0.0758541        -23.7435                0               0
75.36                  0.0554689        -14.7312                0               0         0.250106        -34.7742                0               0
                       0.0755965        -25.4131                0               0         0.959701        -126.521                0               0
                         0.25011         -34.778                0               0        0.0555555        -14.5482                0               0
                          0.9597        -126.519                0               0        0.0755324        -25.4761                0               0
75.405                 0.0514415         -13.822                0               0         0.251154        -35.9584                0               0
                       0.0751668        -27.2976                0               0         0.958981        -127.789                0               0
                         0.25116         -35.963                0               0         0.051538        -13.6223                0               0
                         0.95898        -127.787                0               0        0.0751029        -27.3607                0               0
75.45                   0.047203        -12.5578                0               0         0.251814         -37.235                0               0
                       0.0746334        -29.3424                0               0         0.958499        -129.124                0               0
                        0.251822        -37.2403                0               0        0.0473108        -12.3386                0               0
                        0.958498        -129.123                0               0        0.0745698        -29.4053                0               0
75.495                 0.0427806        -10.7867                0               0         0.252086        -38.6094                0               0
                       0.0740007        -31.5538                0               0         0.958275        -130.523                0               0
                        0.252095        -38.6153                0               0        0.0429019         -10.545                0               0
                        0.958274        -130.522                0               0        0.0739375        -31.6164                0               0
75.54                  0.0382199        -8.27365                0               0         0.251978        -40.0848                0               0
                       0.0732731        -33.9362                0               0         0.958317        -131.982                0               0
                        0.251988         -40.091                0               0        0.0383574        -8.00704                0               0
                        0.958315        -131.981                0               0        0.0732103        -33.9983                0               0
75.585                 0.0335979        -4.64576                0               0         0.251505        -41.6619                0               0
                       0.0724544        -36.4924                0               0          0.95862        -133.496                0               0
                        0.251516        -41.6682                0               0        0.0337552        -4.35417                0               0
                        0.958618        -133.495                0               0        0.0723919        -36.5536                0               0
75.63                  0.0290491        0.694731                0               0         0.250686        -43.3389                0               0
                        0.071548         -39.223                0               0          0.95917        -135.061                0               0
                        0.250697        -43.3453                0               0        0.0292308         1.00399                0               0
                        0.959168         -135.06                0               0        0.0714857        -39.2832                0               0
75.675                 0.0248153         8.67767                0               0         0.249543        -45.1118                0               0
                       0.0705565        -42.1269                0               0         0.959946        -136.675                0               0
                        0.249554        -45.1179                0               0        0.0250265         8.97734                0               0
                        0.959945        -136.673                0               0        0.0704942        -42.1857                0               0
75.72                    0.02133         20.5213                0               0         0.248101        -46.9738                0               0
                       0.0694821        -45.2011                0               0         0.960919        -138.332                0               0
                        0.248112        -46.9795                0               0        0.0215725         20.7403                0               0
                        0.960918         -138.33                0               0        0.0694196        -45.2582                0               0
75.765                 0.0192837         36.8846                0               0         0.246386        -48.9163                0               0
                       0.0683264        -48.4407                0               0         0.962055         -140.03                0               0
                        0.246395        -48.9213                0               0        0.0195475         36.9013                0               0
                        0.962054        -140.028                0               0        0.0682636        -48.4958                0               0
75.81                  0.0194166         55.7739                0               0          0.24442        -50.9286                0               0
                        0.067091        -51.8391                0               0         0.963314        -141.765                0               0
                        0.244428        -50.9329                0               0         0.019674         55.5182                0               0
                        0.963313        -141.764                0               0        0.0670276        -51.8919                0               0
75.855                  0.021925         72.6982                0               0         0.242229        -52.9989                0               0
                       0.0657778         -55.388                0               0         0.964653        -143.536                0               0
                        0.242236        -53.0025                0               0        0.0221493         72.2631                0               0
                        0.964652        -143.534                0               0        0.0657136        -55.4383                0               0
75.9                   0.0263204         85.0279                0               0         0.239837        -55.1146                0               0
                       0.0643892        -59.0777                0               0         0.966027        -145.338                0               0
                        0.239842        -55.1172                0               0        0.0265046          84.548                0               0
                        0.966027        -145.337                0               0        0.0643242        -59.1252                0               0
75.945                   0.03197         93.1083                0               0         0.237267        -57.2623                0               0
                       0.0629289        -62.8969                0               0         0.967389         -147.17                0               0
                        0.237269         -57.264                0               0        0.0321203         92.6521                0               0
                        0.967389        -147.168                0               0        0.0628628        -62.9414                0               0
75.99                  0.0384217         98.1627                0               0         0.234541        -59.4289                0               0
                       0.0614019        -66.8331                0               0         0.968692        -149.029                0               0
                        0.234542        -59.4297                0               0        0.0385467         97.7493                0               0
                        0.968693        -149.027                0               0        0.0613348        -66.8746                0               0
76.035                 0.0453975         101.193                0               0         0.231684        -61.6014                0               0
                       0.0598153        -70.8728                0               0         0.969888        -150.912                0               0
                        0.231684        -61.6014                0               0        0.0455043         100.822                0               0
                        0.969889        -150.911                0               0         0.059747        -70.9112                0               0
76.08                  0.0527201         102.858                0               0         0.228719        -63.7676                0               0
                       0.0581782        -75.0018                0               0          0.97093        -152.819                0               0
                        0.228718        -63.7669                0               0        0.0528142         102.524                0               0
                        0.970932        -152.818                0               0        0.0581087        -75.0371                0               0
76.125                 0.0602634         103.572                0               0         0.225672        -65.9164                0               0
                        0.056502         -79.205                0               0         0.971776        -154.748                0               0
                        0.225671        -65.9151                0               0        0.0603486         103.268                0               0
                        0.971778        -154.746                0               0        0.0564314        -79.2374                0               0
76.17                  0.0679232           103.6                0               0          0.22257        -68.0377                0               0
                        0.054801        -83.4677                0               0         0.972387        -156.696                0               0
                        0.222569         -68.036                0               0        0.0680022          103.32                0               0
                        0.972389        -156.695                0               0        0.0547293        -83.4974                0               0
76.215                 0.0756019         103.122                0               0         0.219441         -70.123                0               0
                        0.053092        -87.7753                0               0         0.972732        -158.664                0               0
                        0.219441        -70.1212                0               0        0.0756762         102.862                0               0
                        0.972734        -158.663                0               0        0.0530192        -87.8028                0               0
76.26                  0.0831985         102.267                0               0         0.216315        -72.1659                0               0
                        0.051395        -92.1149                0               0         0.972793        -160.652                0               0
                        0.216316        -72.1641                0               0        0.0832685         102.023                0               0
                        0.972796         -160.65                0               0        0.0513209        -92.1407                0               0
76.305                  0.090605         101.142                0               0         0.213225        -74.1618                0               0
                        0.049733        -96.4765                0               0         0.972577         -162.66                0               0
                        0.213226        -74.1605                0               0          0.09067         100.911                0               0
                        0.972581        -162.658                0               0        0.0496575        -96.5013                0               0
76.35                  0.0977154         99.8493                0               0         0.210205        -76.1096                0               0
                       0.0481325        -100.856                0               0          0.97213        -164.689                0               0
                        0.210206         -76.109                0               0        0.0977744         99.6312                0               0
                        0.972134        -164.687                0               0         0.048055        -100.881                0               0
76.395                  0.104467         98.5073                0               0         0.207292        -78.0121                0               0
                       0.0466221         -105.26                0               0         0.971564        -166.741                0               0
                        0.207292        -78.0125                0               0         0.104521         98.3015                0               0
                        0.971568        -166.739                0               0         0.046542        -105.286                0               0
76.44                    0.11093         97.2309                0               0         0.204518        -79.8783                0               0
                       0.0452297        -109.715                0               0         0.971094        -168.814                0               0
                        0.204516        -79.8797                0               0         0.110981         97.0372                0               0
                        0.971099        -168.812                0               0        0.0451459        -109.741                0               0
76.485                  0.117367         96.0647                0               0         0.201908         -81.726                0               0
                        0.043974         -114.27                0               0         0.971039        -170.897                0               0
                        0.201901        -81.7283                0               0         0.117423         95.8806                0               0
                        0.971045        -170.895                0               0        0.0438855        -114.297                0               0
76.53                   0.124087          94.909                0               0          0.19945         -83.584                0               0
                       0.0428498        -119.005                0               0         0.971705        -172.962                0               0
                        0.199437        -83.5864                0               0         0.124148           94.73                0               0
                        0.971711         -172.96                0               0        0.0427562        -119.032                0               0
76.575                  0.131126          93.593                0               0         0.197059        -85.4894                0               0
                         0.04181        -124.004                0               0         0.973026         -174.96                0               0
                        0.197039        -85.4907                0               0         0.131186         93.4169                0               0
                        0.973033        -174.958                0               0        0.0417121        -124.029                0               0
76.62                   0.138223          92.036                0               0         0.194526         -87.469                0               0
                       0.0407661        -129.303                0               0         0.974245        -176.851                0               0
                        0.194506         -87.468                0               0         0.138276          91.864                0               0
                        0.974251        -176.849                0               0        0.0406659        -129.327                0               0
76.665                  0.145084         90.2739                0               0         0.191553        -89.4974                0               0
                       0.0396281        -134.841                0               0         0.974299        -178.642                0               0
                         0.19154        -89.4946                0               0         0.145131         90.1074                0               0
                        0.974305         -178.64                0               0        0.0395275        -134.866                0               0
76.71                   0.151541         88.3828                0               0         0.187959        -91.4691                0               0
                       0.0383627        -140.472                0               0         0.972665          179.62                0               0
                        0.187955        -91.4669                0               0         0.151584         88.2224                0               0
                         0.97267         179.622                0               0         0.038262        -140.502                0               0
76.755                  0.157532         86.4272                0               0         0.183908        -93.2518                0               0
                       0.0370103        -146.044                0               0         0.969528         177.893                0               0
                        0.183908        -93.2524                0               0         0.157572         86.2726                0               0
                        0.969533         177.895                0               0        0.0369086        -146.082                0               0
76.8                     0.16305         84.4504                0               0         0.179808        -94.7872                0               0
                       0.0356473        -151.466                0               0         0.965339         176.159                0               0
                        0.179804        -94.7904                0               0         0.163091         84.3009                0               0
                        0.965344         176.161                0               0        0.0355434        -151.513                0               0
76.845                  0.168114         82.4787                0               0         0.175989        -96.1093                0               0
                       0.0343422        -156.712                0               0         0.960478         174.418                0               0
                        0.175978        -96.1134                0               0         0.168155         82.3337                0               0
                        0.960484         174.419                0               0        0.0342355        -156.767                0               0
76.89                   0.172747         80.5285                0               0         0.172574        -97.2856                0               0
                       0.0331377        -161.795                0               0         0.955189         172.676                0               0
                        0.172558        -97.2891                0               0          0.17279         80.3873                0               0
                        0.955195         172.677                0               0        0.0330284        -161.857                0               0
76.935                  0.176975         78.6097                0               0          0.16955        -98.3718                0               0
                       0.0320538        -166.737                0               0         0.949613         170.939                0               0
                        0.169532         -98.374                0               0         0.177019         78.4718                0               0
                         0.94962          170.94                0               0        0.0319422        -166.806                0               0
76.98                   0.180823         76.7287                0               0          0.16686         -99.402                0               0
                       0.0310954         -171.56                0               0         0.943833         169.214                0               0
                        0.166842        -99.4029                0               0         0.180868         76.5936                0               0
                         0.94384         169.216                0               0        0.0309821        -171.636                0               0
77.025                  0.184316         74.8893                0               0         0.164447        -100.395                0               0
                       0.0302602        -176.277                0               0         0.937903         167.506                0               0
                         0.16443        -100.395                0               0         0.184363         74.7568                0               0
                         0.93791         167.508                0               0        0.0301456        -176.359                0               0
77.07                   0.187478         73.0941                0               0         0.162263        -101.359                0               0
                       0.0295422         179.104                0               0         0.931863         165.818                0               0
                        0.162249        -101.359                0               0         0.187527         72.9638                0               0
                         0.93187         165.819                0               0        0.0294267         179.015                0               0
77.115                  0.190335         71.3442                0               0         0.160277        -102.301                0               0
                       0.0289339         174.581                0               0         0.925746         164.152                0               0
                        0.160265          -102.3                0               0         0.190383         71.2159                0               0
                        0.925753         164.154                0               0         0.028818         174.484                0               0
77.16                   0.192907         69.6401                0               0         0.158464        -103.223                0               0
                       0.0284279         170.156                0               0         0.919584          162.51                0               0
                        0.158455        -103.222                0               0         0.192956         69.5137                0               0
                        0.919591         162.512                0               0        0.0283117         170.051                0               0
77.205                  0.195217         67.9817                0               0         0.156808        -104.128                0               0