! TOUCHSTONE file generated by CST MICROWAVE STUDIO
! Date and time: Mon Jun 21 17:06:42 2021
! Project name: HIPS_d_sweep.cst
! Parameters = {a=0.735; b=0.393; d=18.7638; fmax=120; fmin=75; phi=0; theta=0}
! Header version: 2018
! Port assignment regex: !\s*Touchstone port\s*([0-9]+)\s*=\s*(CST MWS port|CST DS port)\s*([0-9]+|Zmin|Zmax)\s*\(\"(.*)\"\)(\s*mode\s*([0-9]+))?.*
! Touchstone port assignment:
! Touchstone port 1 = CST MWS port Zmin ("") mode 1
! Touchstone port 2 = CST MWS port Zmin ("") mode 2
! Touchstone port 3 = CST MWS port Zmax ("") mode 1
! Touchstone port 4 = CST MWS port Zmax ("") mode 2
! S-Parameters are not renormalized. Unphysical impedance of 0 will be written to the file.
# GHz S MA R 0
75                      0.195612         20.7907                0               0         0.331546        -163.984                0               0
                       0.0979641         59.0526                0               0         0.917732         103.186                0               0
                        0.331545        -163.984                0               0         0.195506         20.7989                0               0
                        0.917723         103.185                0               0        0.0980926         59.1295                0               0
75.045                  0.194156         20.4395                0               0          0.33472        -164.582                0               0
                        0.098587         58.2798                0               0         0.916839         102.633                0               0
                         0.33472        -164.582                0               0         0.194048         20.4475                0               0
                        0.916829         102.633                0               0        0.0987164         58.3568                0               0
75.09                   0.192623         20.0219                0               0         0.337608        -165.238                0               0
                       0.0991629         57.3744                0               0         0.916048         102.003                0               0
                        0.337608        -165.238                0               0         0.192514         20.0295                0               0
                        0.916037         102.002                0               0        0.0992932         57.4515                0               0
75.135                  0.191011         19.5399                0               0         0.340216        -165.954                0               0
                       0.0996978         56.3368                0               0         0.915363         101.298                0               0
                        0.340215        -165.954                0               0           0.1909         19.5471                0               0
                        0.915353         101.297                0               0        0.0998287         56.4142                0               0
75.18                   0.189315         18.9958                0               0         0.342551        -166.732                0               0
                        0.100197         55.1682                0               0         0.914787          100.52                0               0
                         0.34255        -166.732                0               0         0.189203         19.0025                0               0
                        0.914776         100.519                0               0         0.100328         55.2459                0               0
75.225                  0.187531         18.3917                0               0         0.344622        -167.574                0               0
                        0.100663         53.8704                0               0          0.91432          99.672                0               0
                        0.344622        -167.573                0               0         0.187418         18.3978                0               0
                         0.91431         99.6714                0               0         0.100795         53.9486                0               0
75.27                   0.185654         17.7297                0               0          0.34644         -168.48                0               0
                        0.101101         52.4461                0               0         0.913962         98.7561                0               0
                        0.346439         -168.48                0               0         0.185538         17.7352                0               0
                        0.913952         98.7556                0               0         0.101234         52.5249                0               0
75.315                  0.183675          17.012                0               0         0.348015        -169.452                0               0
                        0.101512         50.8983                0               0         0.913712         97.7746                0               0
                        0.348014        -169.451                0               0         0.183558         17.0169                0               0
                        0.913703         97.7741                0               0         0.101645         50.9776                0               0
75.36                   0.181588          16.241                0               0         0.349357        -170.488                0               0
                        0.101897         49.2304                0               0         0.913569         96.7295                0               0
                        0.349356        -170.488                0               0         0.181469         16.2452                0               0
                         0.91356          96.729                0               0          0.10203         49.3105                0               0
75.405                  0.179384         15.4189                0               0         0.350477        -171.588                0               0
                        0.102255         47.4465                0               0         0.913532          95.623                0               0
                        0.350477        -171.588                0               0         0.179264         15.4223                0               0
                        0.913522         95.6226                0               0         0.102389         47.5275                0               0
75.45                   0.177056         14.5483                0               0         0.351386        -172.752                0               0
                        0.102587         45.5509                0               0         0.913597         94.4574                0               0
                        0.351386        -172.752                0               0         0.176934         14.5508                0               0
                        0.913588          94.457                0               0         0.102721         45.6327                0               0
75.495                  0.174595         13.6317                0               0         0.352093        -173.977                0               0
                        0.102889         43.5481                0               0         0.913763         93.2349                0               0
                        0.352092        -173.977                0               0         0.174472         13.6332                0               0
                        0.913754         93.2344                0               0         0.103024          43.631                0               0
75.54                   0.171993         12.6719                0               0         0.352607        -175.263                0               0
                         0.10316         41.4431                0               0         0.914028         91.9576                0               0
                        0.352606        -175.262                0               0         0.171868         12.6724                0               0
                        0.914019         91.9572                0               0         0.103295         41.5271                0               0
75.585                  0.169242          11.672                0               0         0.352937        -176.605                0               0
                        0.103396          39.241                0               0         0.914388          90.628                0               0
                        0.352936        -176.605                0               0         0.169115         11.6714                0               0
                        0.914379         90.6275                0               0         0.103531         39.3262                0               0
75.63                   0.166335         10.6352                0               0          0.35309        -178.004                0               0
                        0.103594         36.9471                0               0         0.914842         89.2484                0               0
                        0.353089        -178.004                0               0         0.166206         10.6335                0               0
                        0.914833         89.2479                0               0         0.103729         37.0335                0               0
75.675                  0.163264         9.56527                0               0         0.353073        -179.455                0               0
                        0.103748         34.5667                0               0         0.915385         87.8213                0               0
                        0.353073        -179.455                0               0         0.163133          9.5623                0               0
                        0.915377         87.8209                0               0         0.103883         34.6545                0               0
75.72                   0.160023         8.46602                0               0         0.352895         179.044                0               0
                        0.103856         32.1056                0               0         0.916016         86.3493                0               0
                        0.352894         179.044                0               0         0.159891          8.4617                0               0
                        0.916008         86.3489                0               0         0.103991         32.1948                0               0
75.765                  0.156609         7.34181                0               0         0.352562         177.496                0               0
                        0.103914         29.5693                0               0         0.916731         84.8352                0               0
                        0.352561         177.496                0               0         0.156475         7.33605                0               0
                        0.916723         84.8348                0               0         0.104048         29.6599                0               0
75.81                   0.153016         6.19742                0               0         0.352079         175.903                0               0
                        0.103916         26.9634                0               0         0.917525         83.2817                0               0
                        0.352078         175.903                0               0          0.15288         6.19012                0               0
                        0.917517         83.2813                0               0          0.10405         27.0556                0               0
75.855                  0.149242         5.03808                0               0         0.351455          174.27                0               0
                        0.103861         24.2937                0               0         0.918395         81.6918                0               0
                        0.351454          174.27                0               0         0.149105         5.02913                0               0
                        0.918387         81.6914                0               0         0.103994         24.3875                0               0
75.9                    0.145287         3.86955                0               0         0.350696         172.598                0               0
                        0.103744         21.5657                0               0         0.919335         80.0685                0               0
                        0.350695         172.598                0               0         0.145148         3.85883                0               0
                        0.919327         80.0681                0               0         0.103877         21.6612                0               0
75.945                  0.141151         2.69817                0               0         0.349809         170.891                0               0
                        0.103564          18.785                0               0         0.920339         78.4149                0               0
                        0.349808         170.891                0               0          0.14101         2.68556                0               0
                        0.920331         78.4145                0               0         0.103696         18.8823                0               0
75.99                   0.136837         1.53092                0               0         0.348802         169.152                0               0
                        0.103319         15.9569                0               0         0.921401         76.7343                0               0
                        0.348801         169.152                0               0         0.136694         1.51629                0               0
                        0.921393         76.7339                0               0         0.103449          16.056                0               0
76.035                  0.132349        0.375505                0               0         0.347683         167.385                0               0
                        0.103007         13.0866                0               0         0.922514         75.0299                0               0
                        0.347683         167.385                0               0         0.132204        0.358718                0               0
                        0.922506         75.0295                0               0         0.103136         13.1875                0               0
76.08                   0.127693       -0.759553                0               0         0.346462         165.591                0               0
                        0.102629          10.179                0               0         0.923669          73.305                0               0
                        0.346461         165.591                0               0         0.127546       -0.778641                0               0
                        0.923662         73.3046                0               0         0.102757         10.2818                0               0
76.125                  0.122876        -1.86477                0               0         0.345148         163.775                0               0
                        0.102186         7.23886                0               0          0.92486         71.5629                0               0
                        0.345147         163.775                0               0         0.122727        -1.88632                0               0
                        0.924853         71.5625                0               0         0.102311         7.34361                0               0
76.17                   0.117909        -2.92956                0               0         0.343751         161.939                0               0
                        0.101678         4.27058                0               0         0.926076         69.8069                0               0
                         0.34375         161.939                0               0         0.117758        -2.95373                0               0
                         0.92607         69.8066                0               0         0.101802         4.37731                0               0
76.215                  0.112802        -3.94194                0               0         0.342283         160.086                0               0
                        0.101109         1.27831                0               0         0.927311         68.0403                0               0
                        0.342282         160.086                0               0          0.11265        -3.96891                0               0
                        0.927305         68.0399                0               0          0.10123         1.38706                0               0
76.26                    0.10757        -4.88826                0               0         0.340754          158.22                0               0
                         0.10048        -1.73403                0               0         0.928555         66.2661                0               0
                        0.340753          158.22                0               0         0.107415        -4.91821                0               0
                         0.92855         66.2658                0               0         0.100599        -1.62321                0               0
76.305                  0.102226        -5.75272                0               0         0.339175         156.342                0               0
                       0.0997958        -4.76272                0               0         0.929802         64.4875                0               0
                        0.339175         156.342                0               0         0.102069        -5.78585                0               0
                        0.929797         64.4872                0               0        0.0999123         -4.6498                0               0
76.35                  0.0967869        -6.51674                0               0         0.337559         154.457                0               0
                       0.0990589        -7.80417                0               0         0.931044         62.7074                0               0
                        0.337558         154.457                0               0        0.0966272        -6.55322                0               0
                         0.93104         62.7071                0               0        0.0991728        -7.68912                0               0
76.395                 0.0912709        -7.15802                0               0         0.335914         152.567                0               0
                       0.0982732        -10.8548                0               0         0.932278         60.9284                0               0
                        0.335914         152.567                0               0        0.0911087        -7.19803                0               0
                        0.932274         60.9282                0               0        0.0983843        -10.7376                0               0
76.44                  0.0856979        -7.64921                0               0         0.334251         150.676                0               0
                       0.0974417         -13.911                0               0         0.933497         59.1532                0               0
                         0.33425         150.676                0               0         0.085533        -7.69289                0               0
                        0.933494         59.1529                0               0        0.0975499        -13.7916                0               0
76.485                 0.0800904        -7.95603                0               0         0.332574         148.788                0               0
                       0.0965668        -16.9688                0               0         0.934699          57.384                0               0
                        0.332574         148.788                0               0        0.0799225        -8.00344                0               0
                        0.934695         57.3837                0               0         0.096672        -16.8472                0               0
76.53                  0.0744738         -8.0344                0               0         0.330887         146.905                0               0
                       0.0956497        -20.0238                0               0         0.935874         55.6229                0               0
                        0.330886         146.905                0               0        0.0743025        -8.08549                0               0
                        0.935871         55.6226                0               0        0.0957517        -19.9001                0               0
76.575                 0.0688777        -7.82637                0               0         0.329187         145.033                0               0
                       0.0946897        -23.0714                0               0         0.937008         53.8719                0               0
                        0.329187         145.033                0               0        0.0687028        -7.88086                0               0
                        0.937006         53.8716                0               0        0.0947883        -22.9454                0               0
76.62                  0.0633381        -7.25419                0               0         0.327466         143.176                0               0
                       0.0936834        -26.1061                0               0         0.938074         52.1325                0               0
                        0.327466         143.176                0               0        0.0631591         -7.3114                0               0
                        0.938072         52.1322                0               0        0.0937786         -25.978                0               0
76.665                 0.0579004        -6.21211                0               0         0.325709         141.338                0               0
                       0.0926245        -29.1222                0               0         0.939018         50.4063                0               0
                        0.325708         141.338                0               0        0.0577168        -6.27067                0               0
                        0.939016         50.4061                0               0        0.0927162        -28.9919                0               0
76.71                  0.0526243        -4.55562                0               0         0.323892         139.527                0               0
                       0.0915032        -32.1137                0               0         0.939749         48.6945                0               0
                        0.323891         139.527                0               0        0.0524357        -4.61305                0               0
                        0.939748         48.6942                0               0        0.0915911        -31.9813                0               0
76.755                 0.0475922        -2.09007                0               0         0.321983         137.748                0               0
                        0.090306        -35.0747                0               0         0.940129         46.9977                0               0
                        0.321983         137.748                0               0        0.0473982        -2.14198                0               0
                        0.940128         46.9975                0               0        0.0903903        -34.9402                0               0
76.8                   0.0429207         1.43492                0               0         0.319946         136.009                0               0
                       0.0890171        -37.9998                0               0         0.939964         45.3164                0               0
                        0.319945         136.009                0               0        0.0427213         1.39593                0               0
                        0.939963         45.3162                0               0        0.0890975        -37.8631                0               0
76.845                 0.0387758         6.30667                0               0         0.317738         134.317                0               0
                       0.0876187         -40.884                0               0         0.939031         43.6499                0               0
                        0.317737         134.316                0               0        0.0385717         6.29216                0               0
                         0.93903         43.6497                0               0        0.0876954        -40.7452                0               0
76.89                  0.0353835         12.7684                0               0          0.31532          132.68                0               0
                       0.0860944        -43.7226                0               0         0.937124         41.9971                0               0
                         0.31532          132.68                0               0        0.0351772         12.7944                0               0
                        0.937124         41.9968                0               0        0.0861674        -43.5816                0               0
76.935                 0.0330172         20.8355                0               0         0.312662         131.108                0               0
                        0.084431          -46.51                0               0          0.93413         40.3568                0               0
                        0.312662         131.108                0               0        0.0328133         20.9192                0               0
                         0.93413         40.3565                0               0        0.0845005        -46.3667                0               0
76.98                   0.031931         30.0591                0               0         0.309751         129.606                0               0
                       0.0826227        -49.2373                0               0         0.930082         38.7292                0               0
                        0.309751         129.606                0               0        0.0317362           30.21                0               0
                        0.930082         38.7288                0               0        0.0826889        -49.0917                0               0
77.025                 0.0322415         39.4942                0               0         0.306597         128.179                0               0
                       0.0806751        -51.8904                0               0         0.925159         37.1166                0               0
                        0.306597         128.179                0               0        0.0320628         39.7055                0               0
                         0.92516         37.1162                0               0         0.080738        -51.7425                0               0
77.07                  0.0338438         48.0938                0               0         0.303237         126.825                0               0
                        0.078612        -54.4474                0               0         0.919631         35.5229                0               0
                        0.303237         126.825                0               0        0.0336854         48.3449                0               0
                        0.919632         35.5225                0               0        0.0786716        -54.2971                0               0
77.115                  0.036452         55.2181                0               0         0.299739         125.536                0               0
                       0.0764851        -56.8817                0               0         0.913774         33.9522                0               0
                        0.299739         125.536                0               0        0.0363147         55.4862                0               0
                        0.913776         33.9518                0               0        0.0765411        -56.7289                0               0
77.16                  0.0397275         60.7645                0               0         0.296192         124.296                0               0
                       0.0743812        -59.1764                0               0         0.907815         32.4076                0               0
                        0.296192         124.296                0               0        0.0396095         61.0331                0               0
                        0.907816         32.4072                0               0        0.0744334        -59.0206                0               0
77.205                 0.0433854         64.9557                0               0         0.292706         123.089                0               0