! TOUCHSTONE file generated by CST MICROWAVE STUDIO
! Date and time: Mon Jun 21 17:06:34 2021
! Project name: HIPS_d_sweep.cst
! Parameters = {a=0.735; b=0.393; d=17.7085; fmax=120; fmin=75; phi=0; theta=0}
! Header version: 2018
! Port assignment regex: !\s*Touchstone port\s*([0-9]+)\s*=\s*(CST MWS port|CST DS port)\s*([0-9]+|Zmin|Zmax)\s*\(\"(.*)\"\)(\s*mode\s*([0-9]+))?.*
! Touchstone port assignment:
! Touchstone port 1 = CST MWS port Zmin ("") mode 1
! Touchstone port 2 = CST MWS port Zmin ("") mode 2
! Touchstone port 3 = CST MWS port Zmax ("") mode 1
! Touchstone port 4 = CST MWS port Zmax ("") mode 2
! S-Parameters are not renormalized. Unphysical impedance of 0 will be written to the file.
# GHz S MA R 0
75                     0.0536657         21.7761                0               0         0.415883        -43.3224                0               0
                        0.106019        -37.9948                0               0         0.901622        -133.758                0               0
                        0.415885        -43.3225                0               0        0.0535148          21.529                0               0
                        0.901623        -133.759                0               0          0.10609        -38.2059                0               0
75.045                 0.0533592         22.9941                0               0         0.418775        -43.8946                0               0
                        0.106153        -38.9433                0               0         0.900223        -134.274                0               0
                        0.418777        -43.8947                0               0        0.0532025         22.7501                0               0
                        0.900224        -134.275                0               0         0.106227         -39.154                0               0
75.09                  0.0529879         24.3786                0               0         0.421263        -44.5384                0               0
                        0.106174        -40.0062                0               0         0.899048        -134.874                0               0
                        0.421265        -44.5385                0               0        0.0528249         24.1385                0               0
                         0.89905        -134.875                0               0          0.10625        -40.2164                0               0
75.135                 0.0525651         25.9392                0               0          0.42338        -45.2547                0               0
                        0.106089        -41.1888                0               0         0.898082        -135.552                0               0
                        0.423382        -45.2549                0               0        0.0523951         25.7041                0               0
                        0.898084        -135.553                0               0         0.106169        -41.3986                0               0
75.18                  0.0521076         27.6867                0               0         0.425158        -46.0437                0               0
                        0.105908        -42.4954                0               0         0.897307        -136.304                0               0
                         0.42516        -46.0438                0               0        0.0519301         27.4576                0               0
                        0.897308        -136.305                0               0         0.105991        -42.7048                0               0
75.225                 0.0516362          29.632                0               0         0.426625        -46.9045                0               0
                        0.105639        -43.9294                0               0         0.896705        -137.125                0               0
                        0.426627        -46.9046                0               0        0.0514509         29.4105                0               0
                        0.896706        -137.126                0               0         0.105726        -44.1385                0               0
75.27                  0.0511762         31.7853                0               0         0.427804        -47.8356                0               0
                         0.10529        -45.4932                0               0         0.896258        -138.011                0               0
                        0.427806        -47.8357                0               0        0.0509826          31.573                0               0
                        0.896259        -138.012                0               0         0.105381        -45.7019                0               0
75.315                 0.0507572         34.1543                0               0         0.428717        -48.8352                0               0
                        0.104869         -47.188                0               0         0.895948         -138.96                0               0
                        0.428719        -48.8353                0               0        0.0505552         33.9533                0               0
                        0.895949        -138.961                0               0         0.104965        -47.3964                0               0
75.36                  0.0504132         36.7426                0               0         0.429379         -49.901                0               0
                        0.104382        -49.0144                0               0          0.89576        -139.969                0               0
                        0.429381        -49.9011                0               0        0.0502028          36.555                0               0
                        0.895761         -139.97                0               0         0.104483        -49.2225                0               0
75.405                 0.0501825         39.5467                0               0         0.429804        -51.0304                0               0
                        0.103835        -50.9721                0               0         0.895679        -141.035                0               0
                        0.429806        -51.0305                0               0        0.0499639          39.375                0               0
                         0.89568        -141.036                0               0          0.10394          -51.18                0               0
75.45                  0.0501066          42.554                0               0             0.43        -52.2207                0               0
                        0.103231          -53.06                0               0         0.895691        -142.157                0               0
                        0.430002        -52.2207                0               0        0.0498804         42.4006                0               0
                        0.895692        -142.158                0               0         0.103341        -53.2677                0               0
75.495                 0.0502294         45.7399                0               0         0.429974        -53.4689                0               0
                        0.102575        -55.2765                0               0         0.895788        -143.332                0               0
                        0.429976        -53.4689                0               0        0.0499966          45.607                0               0
                        0.895789        -143.333                0               0          0.10269         -55.484                0               0
75.54                   0.050595         49.0668                0               0         0.429731        -54.7722                0               0
                        0.101868        -57.6192                0               0          0.89596        -144.558                0               0
                        0.429733        -54.7723                0               0        0.0503567         48.9563                0               0
                        0.895961         -144.56                0               0         0.101988        -57.8265                0               0
75.585                 0.0512455         52.4837                0               0         0.429273        -56.1277                0               0
                        0.101111        -60.0849                0               0         0.896203        -145.835                0               0
                        0.429275        -56.1277                0               0        0.0510034         52.3965                0               0
                        0.896205        -145.836                0               0         0.101237         -60.292                0               0
75.63                  0.0522184         55.9279                0               0         0.428601        -57.5323                0               0
                        0.100305        -62.6701                0               0         0.896515        -147.159                0               0
                        0.428603        -57.5324                0               0        0.0519743         55.8644                0               0
                        0.896517         -147.16                0               0         0.100437         -62.877                0               0
75.675                  0.053544         59.3298                0               0         0.427716        -58.9833                0               0
                       0.0994508        -65.3707                0               0         0.896895        -148.529                0               0
                        0.427718        -58.9834                0               0        0.0532998         59.2892                0               0
                        0.896897         -148.53                0               0        0.0995888        -65.5773                0               0
75.72                  0.0552431         62.6176                0               0          0.42662        -60.4778                0               0
                       0.0985474        -68.1818                0               0         0.897346        -149.943                0               0
                        0.426622        -60.4778                0               0        0.0550006         62.5982                0               0
                        0.897348        -149.945                0               0        0.0986915         -68.388                0               0
75.765                 0.0573255         65.7241                0               0         0.425313        -62.0129                0               0
                       0.0975943        -71.0981                0               0          0.89787          -151.4                0               0
                        0.425316        -62.0129                0               0        0.0570867         65.7234                0               0
                        0.897872        -151.401                0               0        0.0977446        -71.3039                0               0
75.81                  0.0597903         68.5917                0               0           0.4238        -63.5859                0               0
                       0.0965912        -74.1139                0               0         0.898472        -152.896                0               0
                        0.423802        -63.5859                0               0        0.0595567         68.6067                0               0
                        0.898474        -152.897                0               0        0.0967478        -74.3191                0               0
75.855                 0.0626256         71.1759                0               0         0.422085         -65.194                0               0
                       0.0955377        -77.2228                0               0         0.899156        -154.428                0               0
                        0.422087        -65.1941                0               0        0.0623984         71.2034                0               0
                        0.899158         -154.43                0               0        0.0957006        -77.4273                0               0
75.9                     0.06581         73.4473                0               0         0.420176        -66.8344                0               0
                       0.0944341         -80.418                0               0         0.899924        -155.995                0               0
                        0.420178        -66.8345                0               0        0.0655901         73.4841                0               0
                        0.899927        -155.996                0               0        0.0946032        -80.6216                0               0
75.945                 0.0693143         75.3907                0               0         0.418082        -68.5044                0               0
                        0.093281        -83.6923                0               0         0.900777        -157.592                0               0
                        0.418084        -68.5044                0               0        0.0691022          75.434                0               0
                         0.90078        -157.593                0               0        0.0934563        -83.8948                0               0
75.99                  0.0731028         77.0039                0               0         0.415817        -70.2007                0               0
                       0.0920798        -87.0381                0               0         0.901711        -159.216                0               0
                        0.415819        -70.2008                0               0        0.0728987         77.0512                0               0
                        0.901714        -159.217                0               0        0.0922613        -87.2392                0               0
76.035                 0.0771353         78.2947                0               0         0.413397        -71.9203                0               0
                       0.0908328        -90.4474                0               0         0.902718        -160.863                0               0
                        0.413398        -71.9203                0               0        0.0769392         78.3439                0               0
                         0.90272        -160.865                0               0        0.0910202        -90.6468                0               0
76.08                   0.081368         79.2791                0               0         0.410839        -73.6594                0               0
                       0.0895431        -93.9119                0               0         0.903784         -162.53                0               0
                         0.41084        -73.6595                0               0        0.0811796         79.3285                0               0
                        0.903786        -162.531                0               0        0.0897363        -94.1093                0               0
76.125                 0.0857552          79.978                0               0         0.408164        -75.4144                0               0
                       0.0882145        -97.4231                0               0         0.904891        -164.212                0               0
                        0.408165        -75.4144                0               0        0.0855742         80.0265                0               0
                        0.904893        -164.213                0               0        0.0884133        -97.6181                0               0
76.17                  0.0902505         80.4162                0               0         0.405394        -77.1807                0               0
                       0.0868518        -100.972                0               0         0.906013        -165.905                0               0
                        0.405394        -77.1807                0               0        0.0900762          80.463                0               0
                        0.906015        -165.907                0               0         0.087056        -101.165                0               0
76.215                 0.0948073         80.6207                0               0          0.40255        -78.9535                0               0
                       0.0854606        -104.551                0               0         0.907121        -167.606                0               0
                        0.402549        -78.9536                0               0        0.0946393         80.6652                0               0
                        0.907123        -167.608                0               0        0.0856699         -104.74                0               0
76.26                  0.0993807         80.6194                0               0         0.399652        -80.7276                0               0
                       0.0840471        -108.149                0               0          0.90818        -169.311                0               0
                         0.39965        -80.7277                0               0        0.0992184         80.6613                0               0
                        0.908182        -169.313                0               0        0.0842614        -108.335                0               0
76.305                  0.103928         80.4405                0               0         0.396718        -82.4974                0               0
                       0.0826184        -111.759                0               0         0.909154        -171.018                0               0
                        0.396715        -82.4976                0               0         0.103771         80.4798                0               0
                        0.909155         -171.02                0               0        0.0828374         -111.94                0               0
76.35                    0.10841         80.1125                0               0         0.393763         -84.257                0               0
                       0.0811817        -115.371                0               0         0.910001        -172.722                0               0
                        0.393759        -84.2572                0               0         0.108258         80.1492                0               0
                        0.910003        -172.724                0               0        0.0814053        -115.547                0               0
76.395                  0.112794         79.6635                0               0         0.390797        -86.0005                0               0
                        0.079745        -118.975                0               0         0.910684        -174.422                0               0
                        0.390793        -86.0008                0               0         0.112647         79.6978                0               0
                        0.910686        -174.424                0               0        0.0799732        -119.145                0               0
76.44                   0.117053         79.1212                0               0         0.387827        -87.7224                0               0
                       0.0783167        -122.561                0               0         0.911164        -176.115                0               0
                        0.387823        -87.7228                0               0         0.116912         79.1533                0               0
                        0.911166        -176.117                0               0        0.0785494        -122.725                0               0
76.485                  0.121172         78.5125                0               0         0.384855        -89.4172                0               0
                       0.0769057        -126.118                0               0         0.911406        -177.799                0               0
                        0.384851        -89.4177                0               0         0.121037         78.5426                0               0
                        0.911408        -177.801                0               0        0.0771431        -126.276                0               0
76.53                   0.125148         77.8633                0               0         0.381882        -91.0806                0               0
                       0.0755219        -129.635                0               0         0.911377        -179.473                0               0
                        0.381877        -91.0811                0               0         0.125019         77.8914                0               0
                        0.911379        -179.475                0               0        0.0757646        -129.785                0               0
76.575                  0.128994         77.1971                0               0         0.378904        -92.7085                0               0
                       0.0741769        -133.098                0               0          0.91105         178.865                0               0
                          0.3789        -92.7091                0               0         0.128874         77.2229                0               0
                        0.911052         178.863                0               0        0.0744256        -133.239                0               0
76.62                   0.132747         76.5326                0               0         0.375918        -94.2979                0               0
                       0.0728852        -136.492                0               0         0.910405         177.215                0               0
                        0.375914        -94.2986                0               0         0.132636         76.5558                0               0
                        0.910407         177.213                0               0        0.0731415        -136.623                0               0
76.665                  0.136464         75.8807                0               0         0.372921        -95.8469                0               0
                       0.0716672        -139.795                0               0         0.909424          175.58                0               0
                        0.372917        -95.8475                0               0         0.136364         75.9003                0               0
                        0.909426         175.578                0               0        0.0719336        -139.916                0               0
76.71                   0.140223         75.2388                0               0         0.369911        -97.3539                0               0
                       0.0705545        -142.985                0               0         0.908096         173.959                0               0
                        0.369908        -97.3546                0               0         0.140134         75.2536                0               0
                        0.908099         173.957                0               0        0.0708348        -143.095                0               0
76.755                  0.144107         74.5866                0               0         0.366889        -98.8185                0               0
                       0.0695996        -146.034                0               0         0.906419         172.355                0               0
                        0.366887        -98.8191                0               0         0.144027         74.5955                0               0
                        0.906421         172.352                0               0        0.0699004        -146.134                0               0
76.8                    0.148175         73.8857                0               0         0.363857        -100.241                0               0
                       0.0688962        -148.917                0               0         0.904392         170.766                0               0
                        0.363855        -100.241                0               0         0.148101         73.8879                0               0
                        0.904394         170.764                0               0         0.069227        -149.012                0               0
76.845                  0.152428         73.0871                0               0         0.360821        -101.621                0               0
                       0.0686108        -151.644                0               0         0.902021         169.195                0               0
                        0.360819        -101.621                0               0         0.152355         73.0825                0               0
                        0.902024         169.193                0               0         0.068984        -151.746                0               0
76.89                   0.156786          72.148                0               0         0.357786         -102.96                0               0
                       0.0690101        -154.342                0               0         0.899318         167.642                0               0
                        0.357785         -102.96                0               0         0.156709         72.1377                0               0
                         0.89932          167.64                0               0        0.0694319        -154.479                0               0
76.935                    0.1611         71.0505                0               0         0.354763        -104.259                0               0
                       0.0703458        -157.445                0               0         0.896297         166.107                0               0
                        0.354762        -104.259                0               0         0.161016         71.0361                0               0
                          0.8963         166.105                0               0        0.0707863        -157.656                0               0
76.98                   0.165199         69.8083                0               0          0.35176        -105.519                0               0
                       0.0722585        -161.711                0               0         0.892979         164.592                0               0
                         0.35176         -105.52                0               0         0.165109         69.7911                0               0
                        0.892982          164.59                0               0        0.0726223        -161.994                0               0
77.025                  0.168947         68.4593                0               0         0.348791        -106.743                0               0
                       0.0732319        -167.301                0               0         0.889385         163.096                0               0
                        0.348791        -106.743                0               0         0.168853         68.4403                0               0
                        0.889388         163.094                0               0        0.0734607        -167.563                0               0
77.07                   0.172272         67.0503                0               0         0.345867        -107.932                0               0
                       0.0722945        -173.035                0               0         0.885542         161.622                0               0
                        0.345867        -107.932                0               0         0.172176         67.0297                0               0
                        0.885544          161.62                0               0        0.0724672        -173.213                0               0
77.115                  0.175162         65.6234                0               0            0.343        -109.087                0               0
                       0.0703072         -177.93                0               0         0.881477         160.168                0               0
                           0.343        -109.087                0               0         0.175066         65.6012                0               0
                        0.881479         160.166                0               0        0.0704961        -178.047                0               0
77.16                   0.177647         64.2097                0               0         0.340202         -110.21                0               0
                       0.0682688         178.005                0               0          0.87722         158.736                0               0
                        0.340202         -110.21                0               0         0.177552         64.1856                0               0
                        0.877223         158.734                0               0        0.0684839         177.915                0               0
77.205                  0.179778         62.8285                0               0         0.337484        -111.304                0               0