! TOUCHSTONE file generated by CST MICROWAVE STUDIO
! Date and time: Mon Jun 21 17:07:19 2021
! Project name: HIPS_d_sweep.cst
! Parameters = {a=0.735; b=0.393; d=23.3367; fmax=120; fmin=75; phi=0; theta=0}
! Header version: 2018
! Port assignment regex: !\s*Touchstone port\s*([0-9]+)\s*=\s*(CST MWS port|CST DS port)\s*([0-9]+|Zmin|Zmax)\s*\(\"(.*)\"\)(\s*mode\s*([0-9]+))?.*
! Touchstone port assignment:
! Touchstone port 1 = CST MWS port Zmin ("") mode 1
! Touchstone port 2 = CST MWS port Zmin ("") mode 2
! Touchstone port 3 = CST MWS port Zmax ("") mode 1
! Touchstone port 4 = CST MWS port Zmax ("") mode 2
! S-Parameters are not renormalized. Unphysical impedance of 0 will be written to the file.
# GHz S MA R 0
75                      0.230079         20.8718                0               0        0.0502625         30.6585                0               0
                       0.0396789         37.5557                0               0         0.971067        -69.6481                0               0
                       0.0502616         30.6588                0               0         0.230058         20.8536                0               0
                        0.971061        -69.6469                0               0        0.0396823         37.5526                0               0
75.045                  0.228703         20.2519                0               0        0.0540683         29.2845                0               0
                       0.0402972         37.8775                0               0         0.971182        -70.3213                0               0
                       0.0540674         29.2849                0               0         0.228682         20.2333                0               0
                        0.971176        -70.3201                0               0         0.040301         37.8747                0               0
75.09                   0.227173         19.5384                0               0        0.0575226         27.9707                0               0
                       0.0408909         37.9302                0               0         0.971322        -71.0821                0               0
                       0.0575217          27.971                0               0         0.227152         19.5194                0               0
                        0.971317        -71.0809                0               0         0.040895         37.9275                0               0
75.135                  0.225484         18.7333                0               0        0.0606229         26.6792                0               0
                       0.0414545          37.729                0               0           0.9715          -71.93                0               0
                       0.0606219         26.6795                0               0         0.225463         18.7138                0               0
                        0.971494        -71.9288                0               0         0.041459         37.7264                0               0
75.18                    0.22363         17.8387                0               0        0.0633695         25.3842                0               0
                        0.041983         37.2884                0               0         0.971723        -72.8642                0               0
                       0.0633686         25.3844                0               0         0.223609         17.8187                0               0
                        0.971717         -72.863                0               0        0.0419878         37.2859                0               0
75.225                  0.221602         16.8566                0               0        0.0657655         24.0672                0               0
                       0.0424717         36.6217                0               0         0.971999        -73.8835                0               0
                       0.0657646         24.0674                0               0         0.221581         16.8359                0               0
                        0.971994        -73.8823                0               0        0.0424768         36.6191                0               0
75.27                    0.21939         15.7887                0               0        0.0678159         22.7154                0               0
                        0.042916         35.7413                0               0         0.972335        -74.9867                0               0
                        0.067815         22.7155                0               0         0.219368         15.7674                0               0
                         0.97233        -74.9855                0               0        0.0429214         35.7387                0               0
75.315                   0.21698          14.637                0               0        0.0695271         21.3195                0               0
                       0.0433113         34.6589                0               0         0.972735        -76.1721                0               0
                       0.0695262         21.3196                0               0         0.216959          14.615                0               0
                         0.97273        -76.1709                0               0         0.043317         34.6562                0               0
75.36                    0.21436         13.4033                0               0        0.0709069         19.8729                0               0
                       0.0436531         33.3854                0               0         0.973203        -77.4379                0               0
                        0.070906          19.873                0               0         0.214338         13.3804                0               0
                        0.973198        -77.4367                0               0         0.043659         33.3826                0               0
75.405                  0.211513         12.0895                0               0        0.0719637         18.3712                0               0
                       0.0439366         31.9315                0               0         0.973741         -78.782                0               0
                       0.0719629         18.3712                0               0         0.211491         12.0657                0               0
                        0.973736        -78.7808                0               0        0.0439427         31.9286                0               0
75.45                   0.208426         10.6976                0               0         0.072707         16.8111                0               0
                       0.0441569         30.3073                0               0         0.974351        -80.2023                0               0
                       0.0727062         16.8112                0               0         0.208403         10.6728                0               0
                        0.974345         -80.201                0               0        0.0441632         30.3041                0               0
75.495                  0.205081         9.22965                0               0        0.0731466         15.1908                0               0
                       0.0443093         28.5225                0               0         0.975031        -81.6961                0               0
                       0.0731457         15.1909                0               0         0.205059         9.20373                0               0
                        0.975026        -81.6948                0               0        0.0443158         28.5191                0               0
75.54                   0.201466         7.68798                0               0        0.0732927         13.5092                0               0
                       0.0443887         26.5867                0               0         0.975781        -83.2608                0               0
                       0.0732918         13.5094                0               0         0.201443         7.66085                0               0
                        0.975776        -83.2595                0               0        0.0443954         26.5831                0               0
75.585                  0.197565         6.07507                0               0        0.0731558         11.7659                0               0
                       0.0443904         24.5096                0               0         0.976599        -84.8935                0               0
                        0.073155         11.7661                0               0         0.197541          6.0466                0               0
                        0.976594        -84.8923                0               0        0.0443972         24.5057                0               0
75.63                   0.193365         4.39361                0               0         0.072747         9.96107                0               0
                       0.0443096         22.3007                0               0         0.977482        -86.5913                0               0
                       0.0727462         9.96124                0               0         0.193341         4.36368                0               0
                        0.977477          -86.59                0               0        0.0443166         22.2964                0               0
75.675                  0.188855         2.64658                0               0        0.0720772         8.09522                0               0
                        0.044142         19.9694                0               0         0.978426        -88.3509                0               0
                       0.0720764          8.0954                0               0         0.188831         2.61504                0               0
                        0.978421        -88.3496                0               0         0.044149         19.9647                0               0
75.72                   0.184026        0.837179                0               0        0.0711579          6.1693                0               0
                       0.0438835         17.5252                0               0         0.979426         -90.169                0               0
                       0.0711571         6.16948                0               0         0.184002        0.803883                0               0
                        0.979422        -90.1677                0               0        0.0438906         17.5201                0               0
75.765                  0.178871         -1.0311                0               0        0.0700006         4.18454                0               0
                       0.0435307         14.9778                0               0         0.980477        -92.0421                0               0
                       0.0699998         4.18471                0               0         0.178847        -1.06634                0               0
                        0.980473        -92.0407                0               0        0.0435378         14.9723                0               0
75.81                   0.173385        -2.95456                0               0        0.0686174         2.14243                0               0
                       0.0430807         12.3367                0               0         0.981574        -93.9666                0               0
                       0.0686166         2.14257                0               0         0.173361        -2.99193                0               0
                        0.981569        -93.9653                0               0        0.0430879         12.3307                0               0
75.855                  0.167567        -4.92924                0               0        0.0670204       0.0446593                0               0
                       0.0425316          9.6116                0               0         0.982708        -95.9389                0               0
                       0.0670197       0.0447538                0               0         0.167543        -4.96899                0               0
                        0.982704        -95.9375                0               0        0.0425387         9.60504                0               0
75.9                    0.161419        -6.95103                0               0        0.0652225        -2.10685                0               0
                        0.041882         6.81193                0               0         0.983874        -97.9551                0               0
                       0.0652218        -2.10682                0               0         0.161395        -6.99343                0               0
                        0.983869        -97.9537                0               0         0.041889         6.80478                0               0
75.945                  0.154945        -9.01565                0               0        0.0632367           -4.31                0               0
                       0.0411315         3.94716                0               0         0.985062        -100.011                0               0
                       0.0632361        -4.31005                0               0         0.154921          -9.061                0               0
                        0.985059         -100.01                0               0        0.0411385         3.93936                0               0
75.99                   0.148154        -11.1187                0               0        0.0610769        -6.56245                0               0
                       0.0402809         1.02655                0               0         0.986266        -102.104                0               0
                       0.0610762         -6.5626                0               0         0.148129        -11.1674                0               0
                        0.986263        -102.103                0               0        0.0402877         1.01804                0               0
76.035                  0.141055        -13.2558                0               0        0.0587571        -8.86166                0               0
                       0.0393315        -1.94085                0               0         0.987476        -104.229                0               0
                       0.0587566        -8.86193                0               0         0.141031        -13.3082                0               0
                        0.987473        -104.227                0               0        0.0393382        -1.95017                0               0
76.08                   0.133663        -15.4224                0               0        0.0562925        -11.2049                0               0
                       0.0382857        -4.94628                0               0         0.988682        -106.382                0               0
                       0.0562921        -11.2053                0               0         0.133639        -15.4792                0               0
                        0.988679         -106.38                0               0        0.0382922         -4.9565                0               0
76.125                  0.125993        -17.6142                0               0        0.0536985         -13.589                0               0
                       0.0371467        -7.98126                0               0         0.989874        -108.558                0               0
                       0.0536982        -13.5895                0               0         0.125969        -17.6758                0               0
                        0.989871        -108.557                0               0         0.037153        -7.99252                0               0
76.17                   0.118063        -19.8266                0               0        0.0509914        -16.0107                0               0
                       0.0359184        -11.0377                0               0         0.991041        -110.756                0               0
                       0.0509913        -16.0114                0               0          0.11804        -19.8939                0               0
                        0.991039        -110.754                0               0        0.0359246        -11.0501                0               0
76.215                  0.109894        -22.0553                0               0        0.0481881        -18.4663                0               0
                       0.0346054        -14.1077                0               0         0.992173        -112.969                0               0
                       0.0481882        -18.4671                0               0         0.109871        -22.1293                0               0
                        0.992171        -112.967                0               0        0.0346114        -14.1215                0               0
76.26                   0.101506        -24.2959                0               0         0.045306        -20.9518                0               0
                       0.0332131        -17.1838                0               0         0.993257        -115.194                0               0
                       0.0453063        -20.9526                0               0         0.101483        -24.3777                0               0
                        0.993255        -115.192                0               0        0.0332189        -17.1992                0               0
76.305                 0.0929226        -26.5438                0               0        0.0423633        -23.4625                0               0
                       0.0317473        -20.2588                0               0         0.994283        -117.427                0               0
                       0.0423637        -23.4634                0               0        0.0928997        -26.6351                0               0
                        0.994281        -117.425                0               0        0.0317528        -20.2759                0               0
76.35                  0.0841677        -28.7945                0               0        0.0393782        -25.9939                0               0
                       0.0302145        -23.3254                0               0         0.995238        -119.664                0               0
                       0.0393787        -25.9948                0               0        0.0841451        -28.8973                0               0
                        0.995237        -119.662                0               0        0.0302197        -23.3447                0               0
76.395                 0.0752669        -31.0428                0               0        0.0363691        -28.5411                0               0
                       0.0286219        -26.3766                0               0         0.996114        -121.901                0               0
                       0.0363697        -28.5419                0               0        0.0752447        -31.1598                0               0
                        0.996113          -121.9                0               0        0.0286268        -26.3983                0               0
76.44                  0.0662474         -33.283                0               0        0.0333543        -31.0994                0               0
                       0.0269775        -29.4051                0               0         0.996902        -124.135                0               0
                        0.033355        -31.1002                0               0        0.0662257        -33.4184                0               0
                        0.996901        -124.134                0               0         0.026982        -29.4298                0               0
76.485                 0.0571389        -35.5083                0               0        0.0303515        -33.6653                0               0
                       0.0252901        -32.4034                0               0         0.997596        -126.362                0               0
                       0.0303523         -33.666                0               0        0.0571176        -35.6678                0               0
                        0.997595         -126.36                0               0        0.0252944        -32.4314                0               0
76.53                  0.0479737        -37.7095                0               0        0.0273774        -36.2378                0               0
                       0.0235702        -35.3628                0               0         0.998196        -128.578                0               0
                       0.0273782        -36.2385                0               0        0.0479529        -37.9025                0               0
                        0.998195        -128.577                0               0        0.0235741        -35.3948                0               0
76.575                 0.0387883        -39.8726                0               0         0.024447        -38.8204                0               0
                       0.0218294        -38.2731                0               0         0.998704        -130.781                0               0
                       0.0244479        -38.8212                0               0        0.0387679        -40.1148                0               0
                        0.998703         -130.78                0               0         0.021833        -38.3098                0               0
76.62                  0.0296233        -41.9701                0               0        0.0215735        -41.4231                0               0
                       0.0200813        -41.1204                0               0         0.999127        -132.967                0               0
                       0.0215744        -41.4241                0               0        0.0296032        -42.2917                0               0
                        0.999127        -132.966                0               0        0.0200846        -41.1626                0               0
76.665                 0.0205231        -43.9292                0               0        0.0187676        -44.0618                0               0
                       0.0183404        -43.8848                0               0         0.999469        -135.135                0               0
                       0.0187688        -44.0633                0               0        0.0205028        -44.3993                0               0
                        0.999469        -135.133                0               0        0.0183436        -43.9333                0               0
76.71                  0.0115302        -45.4451                0               0        0.0160388         -46.741                0               0
                       0.0166207        -46.5355                0               0         0.999709         -137.28                0               0
                       0.0160405        -46.7434                0               0        0.0115085        -46.2915                0               0
                         0.99971        -137.279                0               0        0.0166237        -46.5916                0               0
76.755                  0.002679        -42.0662                0               0        0.0133986        -49.3743                0               0
                       0.0149294        -49.0261                0               0         0.999752        -139.402                0               0
                        0.013401        -49.3774                0               0       0.00264455        -45.7231                0               0
                        0.999753        -139.401                0               0        0.0149323        -49.0914                0               0
76.8                  0.00613709         124.829                0               0        0.0108673        -51.4881                0               0
                       0.0132529        -51.2762                0               0         0.999305        -141.499                0               0
                       0.0108701        -51.4908                0               0       0.00614667         126.453                0               0
                        0.999306        -141.497                0               0        0.0132558        -51.3537                0               0
76.845                 0.0149822          123.78                0               0       0.00848284        -51.2818                0               0
                       0.0115325        -53.0139                0               0         0.997671         -143.57                0               0
                      0.00848522        -51.2822                0               0        0.0149921         124.448                0               0
                        0.997671        -143.569                0               0        0.0115348        -53.1096                0               0
76.89                  0.0239331         120.271                0               0       0.00636594        -43.3221                0               0
                       0.0097308        -52.9884                0               0         0.993611        -145.619                0               0
                      0.00636688        -43.3212                0               0        0.0239356         120.695                0               0
                        0.993611        -145.617                0               0       0.00973108         -53.108                0               0
76.935                 0.0323986         115.936                0               0       0.00516487        -17.9534                0               0
                      0.00816877        -49.3184                0               0         0.985926        -147.652                0               0
                      0.00516576        -17.9579                0               0        0.0323934         116.249                0               0
                        0.985926         -147.65                0               0        0.0081663        -49.4633                0               0
76.98                   0.040146         112.251                0               0       0.00612874         14.7281                0               0
                      0.00704113        -43.2745                0               0         0.975043        -149.673                0               0
                      0.00613204         14.6938                0               0        0.0401327         112.499                0               0
                        0.975044         -149.67                0               0       0.00703459        -43.4471                0               0
77.025                 0.0475924         109.293                0               0       0.00859726         32.1001                0               0
                      0.00615263        -35.4032                0               0         0.963359        -151.663                0               0
                      0.00860283          32.042                0               0        0.0475716         109.499                0               0
                        0.963361         -151.66                0               0       0.00614095        -35.5903                0               0
77.07                   0.054924         106.709                0               0        0.0112498         38.8893                0               0
                      0.00550544        -24.9419                0               0         0.952968        -153.604                0               0
                       0.0112564         38.8287                0               0         0.054898         106.885                0               0
                         0.95297          -153.6                0               0       0.00548853        -25.1178                0               0
77.115                 0.0621261         104.321                0               0        0.0136563         41.2214                0               0
                      0.00519806        -12.2842                0               0         0.944311        -155.494                0               0
                       0.0136627          41.169                0               0        0.0620971         104.477                0               0
                        0.944312        -155.489                0               0       0.00517667        -12.4133                0               0
77.16                  0.0691419         102.062                0               0        0.0157978         41.5807                0               0
                      0.00527774        0.590978                0               0          0.93691        -157.341                0               0
                       0.0158034         41.5393                0               0        0.0691114         102.202                0               0
                        0.936911        -157.336                0               0       0.00525357        0.531562                0               0
77.205                 0.0759216         99.9031                0               0        0.0177427         40.9443                0               0