! TOUCHSTONE file generated by CST MICROWAVE STUDIO
! Date and time: Mon Jun 21 17:07:37 2021
! Project name: HIPS_d_sweep.cst
! Parameters = {a=0.735; b=0.393; d=25.2462; fmax=120; fmin=75; phi=0; theta=0}
! Header version: 2018
! Port assignment regex: !\s*Touchstone port\s*([0-9]+)\s*=\s*(CST MWS port|CST DS port)\s*([0-9]+|Zmin|Zmax)\s*\(\"(.*)\"\)(\s*mode\s*([0-9]+))?.*
! Touchstone port assignment:
! Touchstone port 1 = CST MWS port Zmin ("") mode 1
! Touchstone port 2 = CST MWS port Zmin ("") mode 2
! Touchstone port 3 = CST MWS port Zmax ("") mode 1
! Touchstone port 4 = CST MWS port Zmax ("") mode 2
! S-Parameters are not renormalized. Unphysical impedance of 0 will be written to the file.
# GHz S MA R 0
75                      0.101085         -22.595                0               0        0.0721752        -22.7828                0               0
                      0.00978228        -70.7843                0               0         0.992207           67.73                0               0
                       0.0721755        -22.7822                0               0         0.101093        -22.4583                0               0
                         0.99221         67.7309                0               0       0.00983192        -70.9014                0               0
75.045                 0.0983845        -23.3897                0               0        0.0683422        -23.5261                0               0
                      0.00986784        -66.7954                0               0         0.993134         66.9767                0               0
                       0.0683419        -23.5258                0               0        0.0983918        -23.2493                0               0
                        0.993137         66.9777                0               0       0.00991586         -66.943                0               0
75.09                  0.0953151        -24.2617                0               0        0.0647236        -24.3894                0               0
                      0.00985885        -63.5352                0               0         0.993838         66.1289                0               0
                        0.064723        -24.3892                0               0        0.0953221        -24.1164                0               0
                        0.993841         66.1298                0               0        0.0099053        -63.7125                0               0
75.135                 0.0918629         -25.216                0               0        0.0613935        -25.3642                0               0
                       0.0097578        -60.9476                0               0         0.994379         65.1854                0               0
                       0.0613929         -25.364                0               0        0.0918698        -25.0645                0               0
                        0.994383         65.1863                0               0       0.00980279        -61.1548                0               0
75.18                  0.0880152        -26.2567                0               0        0.0584139        -26.4389                0               0
                      0.00956592        -58.9863                0               0         0.994812         64.1458                0               0
                       0.0584135        -26.4386                0               0        0.0880224        -26.0977                0               0
                        0.994815         64.1467                0               0       0.00960963        -59.2247                0               0
75.225                 0.0837613        -27.3874                0               0        0.0558331        -27.6008                0               0
                      0.00928295        -57.6153                0               0         0.995181         63.0102                0               0
                        0.055833        -27.6003                0               0        0.0837688        -27.2192                0               0
                        0.995185         63.0111                0               0       0.00932561        -57.8871                0               0
75.27                   0.079092        -28.6107                0               0        0.0536849        -28.8382                0               0
                       0.0089071        -56.8093                0               0         0.995524         61.7794                0               0
                       0.0536852        -28.8374                0               0           0.0791        -28.4313                0               0
                        0.995527         61.7804                0               0         0.008949        -57.1181                0               0
75.315                 0.0740009        -29.9282                0               0        0.0519891        -30.1425                0               0
                      0.00843529        -56.5555                0               0         0.995865         60.4549                0               0
                       0.0519898        -30.1415                0               0        0.0740094        -29.7352                0               0
                        0.995868         60.4558                0               0       0.00847678         -56.907                0               0
75.36                  0.0684847        -31.3404                0               0        0.0507526        -31.5097                0               0
                      0.00786344        -56.8573                0               0         0.996224         59.0383                0               0
                       0.0507536        -31.5084                0               0        0.0684934        -31.1307                0               0
                        0.996227         59.0392                0               0       0.00790496        -57.2596                0               0
75.405                 0.0625434        -32.8468                0               0        0.0499708        -32.9403                0               0
                      0.00718699        -57.7421                0               0         0.996606          57.532                0               0
                       0.0499719        -32.9389                0               0        0.0625523        -32.6161                0               0
                        0.996609         57.5329                0               0       0.00722909        -58.2077                0               0
75.45                  0.0561814        -34.4456                0               0        0.0496293        -34.4389                0               0
                      0.00640146        -59.2794                0               0          0.99701         55.9387                0               0
                       0.0496305        -34.4374                0               0        0.0561902        -34.1878                0               0
                        0.997013         55.9396                0               0       0.00644485        -59.8274                0               0
75.495                 0.0494075        -36.1338                0               0        0.0497065        -36.0123                0               0
                      0.00550344        -61.6239                0               0         0.997426         54.2616                0               0
                       0.0497076        -36.0108                0               0        0.0494161        -35.8398                0               0
                        0.997429         54.2625                0               0       0.00554909        -62.2852                0               0
75.54                  0.0422357        -37.9067                0               0        0.0501751        -37.6678                0               0
                      0.00449206        -65.1331                0               0         0.997836         52.5042                0               0
                        0.050176        -37.6664                0               0        0.0422438        -37.5621                0               0
                        0.997839         52.5051                0               0       0.00454147        -65.9602                0               0
75.585                 0.0346847        -39.7581                0               0        0.0510042        -39.4114                0               0
                      0.00337289         -70.759                0               0         0.998218         50.6704                0               0
                       0.0510049          -39.41                0               0        0.0346922         -39.338                0               0
                        0.998221         50.6713                0               0       0.00342873        -71.8461                0               0
75.63                  0.0267783        -41.6786                0               0        0.0521615        -41.2467                0               0
                      0.00217401        -81.8395                0               0         0.998543         48.7644                0               0
                       0.0521619        -41.2453                0               0        0.0267852        -41.1342                0               0
                        0.998546         48.7653                0               0        0.0022423        -83.3213                0               0
75.675                 0.0185449        -43.6504                0               0         0.053614        -43.1746                0               0
                      0.00108229        -116.937                0               0         0.998783         46.7907                0               0
                       0.0536141        -43.1732                0               0        0.0185514        -42.8642                0               0
                        0.998786         46.7917                0               0        0.0011744        -117.539                0               0
75.72                  0.0100166        -45.6148                0               0        0.0553299        -45.1933                0               0
                      0.00131014         162.915                0               0         0.998909         44.7541                0               0
                       0.0553296        -45.1918                0               0        0.0100242        -44.1598                0               0
                        0.998912         44.7551                0               0       0.00134576         166.802                0               0
75.765                0.00122951        -45.9918                0               0        0.0572789        -47.2989                0               0
                      0.00271672         135.653                0               0         0.998893         42.6596                0               0
                       0.0572782        -47.2974                0               0       0.00126661        -34.4116                0               0
                        0.998896         42.6607                0               0       0.00270898          137.78                0               0
75.81                 0.00778122         129.499                0               0        0.0594333        -49.4862                0               0
                      0.00437522         125.276                0               0         0.998712         40.5124                0               0
                       0.0594323        -49.4847                0               0       0.00778493         127.626                0               0
                        0.998715         40.5134                0               0       0.00435169         126.623                0               0
75.855                 0.0169748         127.438                0               0        0.0617681        -51.7491                0               0
                       0.0061554         118.861                0               0         0.998352         38.3175                0               0
                       0.0617667        -51.7476                0               0        0.0169757         126.579                0               0
                        0.998354         38.3186                0               0       0.00612294         119.838                0               0
75.9                   0.0263139         125.216                0               0        0.0642609         -54.081                0               0
                      0.00802306         113.867                0               0         0.997803         36.0801                0               0
                       0.0642592        -54.0795                0               0        0.0263137         124.662                0               0
                        0.997806         36.0813                0               0       0.00798411         114.634                0               0
75.945                 0.0357616         122.933                0               0        0.0668926        -56.4753                0               0
                      0.00995834          109.52                0               0          0.99707         33.8055                0               0
                       0.0668906        -56.4738                0               0        0.0357604         122.526                0               0
                        0.997072         33.8067                0               0       0.00991396         110.154                0               0
75.99                  0.0452832         120.608                0               0        0.0696466        -58.9253                0               0
                       0.0119453          105.52                0               0         0.996164         31.4984                0               0
                       0.0696444        -58.9239                0               0        0.0452806         120.287                0               0
                        0.996166         31.4996                0               0        0.0118961         106.061                0               0
76.035                 0.0548465         118.251                0               0        0.0725091        -61.4243                0               0
                       0.0139701         101.729                0               0          0.99511         29.1636                0               0
                       0.0725067         -61.423                0               0        0.0548426         117.986                0               0
                        0.995112         29.1649                0               0        0.0139163         102.203                0               0
76.08                  0.0644233         115.866                0               0        0.0754686        -63.9651                0               0
                       0.0160203         98.0787                0               0         0.993943         26.8056                0               0
                        0.075466        -63.9638                0               0        0.0644181         115.641                0               0
                        0.993944         26.8069                0               0        0.0159619         98.5018                0               0
76.125                 0.0739891         113.457                0               0         0.078515        -66.5397                0               0
                       0.0180845         94.5322                0               0         0.992706         24.4285                0               0
                       0.0785124        -66.5387                0               0        0.0739828         113.262                0               0
                        0.992707         24.4298                0               0        0.0180219         94.9154                0               0
76.17                  0.0835234         111.028                0               0        0.0816395        -69.1393                0               0
                       0.0201526          91.067                0               0         0.991446         22.0364                0               0
                       0.0816368        -69.1385                0               0        0.0835167         110.856                0               0
                        0.991447         22.0378                0               0        0.0200856         91.4181                0               0
76.215                 0.0930093         108.584                0               0        0.0848322        -71.7535                0               0
                       0.0222147         87.6678                0               0         0.990213         19.6334                0               0
                       0.0848296        -71.7529                0               0        0.0930032          108.43                0               0
                        0.990214         19.6347                0               0        0.0221434         87.9927                0               0
76.26                   0.102432         106.131                0               0        0.0880808        -74.3705                0               0
                       0.0242611         84.3227                0               0         0.989051         17.2234                0               0
                       0.0880784        -74.3701                0               0         0.102428         105.992                0               0
                        0.989051         17.2247                0               0        0.0241855         84.6255                0               0
76.305                  0.111774         103.679                0               0        0.0913678        -76.9774                0               0
                       0.0262815         81.0208                0               0         0.987991         14.8111                0               0
                       0.0913656        -76.9772                0               0         0.111773         103.553                0               0
                         0.98799         14.8124                0               0        0.0262015         81.3051                0               0
76.35                   0.121008         101.241                0               0        0.0946671        -79.5615                0               0
                       0.0282647         77.7522                0               0         0.987043         12.4012                0               0
                       0.0946652        -79.5613                0               0         0.121011         101.127                0               0
                        0.987042         12.4025                0               0        0.0281805         78.0206                0               0
76.395                  0.130089         98.8297                0               0        0.0979417        -82.1121                0               0
                       0.0301985         74.5067                0               0         0.986193         9.99917                0               0
                         0.09794         -82.112                0               0         0.130094          98.727                0               0
                        0.986192         10.0004                0               0          0.03011         74.7613                0               0
76.44                   0.138942         96.4546                0               0         0.101143        -84.6236                0               0
                       0.0320693         71.2744                0               0         0.985389         7.61047                0               0
                        0.101142        -84.6235                0               0         0.138949         96.3617                0               0
                        0.985388         7.61171                0               0        0.0319766         71.5171                0               0
76.485                  0.147476         94.1143                0               0         0.104215        -87.0979                0               0
                       0.0338624         68.0458                0               0         0.984549         5.24063                0               0
                        0.104213        -87.0977                0               0         0.147482         94.0296                0               0
                        0.984547         5.24188                0               0        0.0337655          68.278                0               0
76.53                   0.155594         91.7973                0               0         0.107099        -89.5457                0               0
                       0.0355622         64.8121                0               0         0.983556         2.89466                0               0
                        0.107097        -89.5454                0               0         0.155599         91.7188                0               0
                        0.983554         2.89592                0               0        0.0354614         65.0351                0               0
76.575                  0.163227         89.4867                0               0         0.109747        -91.9849                0               0
                        0.037153         61.5661                0               0         0.982275         0.57656                0               0
                        0.109745        -91.9846                0               0         0.163231         89.4128                0               0
                        0.982274        0.577858                0               0        0.0370483         61.7809                0               0
76.62                   0.170338         87.1688                0               0          0.11213        -94.4368                0               0
                       0.0386196         58.3021                0               0         0.980566        -1.71093                0               0
                        0.112128        -94.4366                0               0         0.170342         87.0984                0               0
                        0.980565        -1.70959                0               0        0.0385112         58.5096                0               0
76.665                  0.176918         84.8378                0               0         0.114238         -96.921                0               0
                       0.0399478         55.0173                0               0         0.978301        -3.96639                0               0
                        0.114236        -96.9209                0               0         0.176924         84.7703                0               0
                        0.978299        -3.96499                0               0        0.0398359         55.2182                0               0
76.71                   0.182971         82.4959                0               0         0.116082        -99.4511                0               0
                       0.0411253         51.7113                0               0         0.975378        -6.18948                0               0
                        0.116079         -99.451                0               0          0.18298         82.4311                0               0
                        0.975376        -6.18801                0               0          0.04101         51.9063                0               0
76.755                  0.188507         80.1506                0               0         0.117682        -102.033                0               0
                       0.0421423          48.387                0               0         0.971734        -8.38053                0               0
                        0.117679        -102.033                0               0          0.18852         80.0884                0               0
                        0.971732          -8.379                0               0        0.0420238         48.5766                0               0
76.8                    0.193535          77.812                0               0         0.119064        -104.665                0               0
                       0.0429918         45.0502                0               0         0.967349        -10.5401                0               0
                         0.11906        -104.666                0               0         0.193551         77.7523                0               0
                        0.967346        -10.5385                0               0        0.0428704         45.2349                0               0
76.845                  0.198064         75.4907                0               0          0.12025        -107.342                0               0
                       0.0436703         41.7094                0               0         0.962239        -12.6687                0               0
                        0.120247        -107.342                0               0         0.198083         75.4335                0               0
                        0.962235        -12.6671                0               0         0.043546         41.8895                0               0
76.89                   0.202105         73.1965                0               0         0.121262        -110.052                0               0
                       0.0441772          38.375                0               0         0.956456        -14.7664                0               0
                        0.121259        -110.053                0               0         0.202126         73.1418                0               0
                        0.956452        -14.7647                0               0        0.0440503         38.5509                0               0
76.935                  0.205671         70.9383                0               0         0.122114        -112.786                0               0
                       0.0445156          35.059                0               0         0.950075         -16.833                0               0
                        0.122111        -112.787                0               0         0.205694         70.8858                0               0
                        0.950071        -16.8313                0               0        0.0443861          35.231                0               0
76.98                    0.20878         68.7232                0               0         0.122818        -115.533                0               0
                       0.0446912          31.774                0               0         0.943187        -18.8679                0               0
                        0.122814        -115.533                0               0         0.208804          68.673                0               0
                        0.943183        -18.8663                0               0        0.0445595         31.9424                0               0
77.025                  0.211451         66.5573                0               0         0.123381        -118.281                0               0
                       0.0447128         28.5328                0               0         0.935892        -20.8707                0               0
                        0.123378        -118.282                0               0         0.211476         66.5093                0               0
                        0.935888         -20.869                0               0        0.0445791         28.6977                0               0
77.07                   0.213709         64.4451                0               0         0.123811        -121.023                0               0
                       0.0445913         25.3471                0               0         0.928292        -22.8405                0               0
                        0.123808        -121.023                0               0         0.213734         64.3991                0               0
                        0.928287        -22.8388                0               0        0.0444557         25.5089                0               0
77.115                   0.21558         62.3898                0               0         0.124115        -123.749                0               0
                       0.0443391         22.2277                0               0         0.920484        -24.7771                0               0
                        0.124112        -123.749                0               0         0.215605         62.3459                0               0
                        0.920479        -24.7754                0               0        0.0442019         22.3866                0               0
77.16                   0.217094         60.3935                0               0         0.124298        -126.452                0               0
                       0.0439698         19.1838                0               0         0.912561        -26.6801                0               0
                        0.124296        -126.453                0               0         0.217119         60.3515                0               0
                        0.912557        -26.6784                0               0        0.0438312           19.34                0               0
77.205                   0.21828         58.4574                0               0         0.124368        -129.128                0               0