! TOUCHSTONE file generated by CST MICROWAVE STUDIO
! Date and time: Mon Jun 21 17:06:21 2021
! Project name: HIPS_d_sweep.cst
! Parameters = {a=0.735; b=0.393; d=16.402; fmax=120; fmin=75; phi=0; theta=0}
! Header version: 2018
! Port assignment regex: !\s*Touchstone port\s*([0-9]+)\s*=\s*(CST MWS port|CST DS port)\s*([0-9]+|Zmin|Zmax)\s*\(\"(.*)\"\)(\s*mode\s*([0-9]+))?.*
! Touchstone port assignment:
! Touchstone port 1 = CST MWS port Zmin ("") mode 1
! Touchstone port 2 = CST MWS port Zmin ("") mode 2
! Touchstone port 3 = CST MWS port Zmax ("") mode 1
! Touchstone port 4 = CST MWS port Zmax ("") mode 2
! S-Parameters are not renormalized. Unphysical impedance of 0 will be written to the file.
# GHz S MA R 0
75                     0.0852794          69.695                0               0          0.48565         107.385                0               0
                        0.101429        -93.4131                0               0          0.86405         18.5192                0               0
                         0.48565         107.385                0               0        0.0850919         69.8216                0               0
                        0.864052         18.5202                0               0         0.101593        -93.4184                0               0
75.045                 0.0860619         69.8459                0               0          0.48881         106.764                0               0
                        0.101433        -94.6249                0               0         0.865069         18.0172                0               0
                        0.488778         106.763                0               0        0.0858759         69.9719                0               0
                        0.865074         18.0182                0               0         0.101602        -94.6285                0               0
75.09                  0.0869381          69.968                0               0          0.49146          106.12                0               0
                        0.101382         -95.909                0               0         0.865463         17.4637                0               0
                        0.491407         106.119                0               0        0.0867536         70.0931                0               0
                         0.86547         17.4647                0               0         0.101555        -95.9112                0               0
75.135                 0.0879199         70.0629                0               0         0.493593         105.447                0               0
                        0.101273        -97.2714                0               0         0.865318         16.8525                0               0
                        0.493528         105.444                0               0        0.0877369         70.1869                0               0
                        0.865326         16.8535                0               0         0.101449        -97.2726                0               0
75.18                  0.0890189         70.1333                0               0         0.495217         104.736                0               0
                        0.101104        -98.7184                0               0         0.864738         16.1789                0               0
                        0.495149         104.733                0               0        0.0888375          70.256                0               0
                        0.864747         16.1799                0               0         0.101281         -98.719                0               0
75.225                  0.090246         70.1832                0               0         0.496354         103.982                0               0
                        0.100874        -100.257                0               0         0.863834         15.4398                0               0
                        0.496289         103.978                0               0        0.0900661         70.3045                0               0
                        0.863842         15.4408                0               0         0.101052        -100.257                0               0
75.27                  0.0916102         70.2173                0               0         0.497036         103.177                0               0
                        0.100582        -101.893                0               0         0.862717         14.6337                0               0
                         0.49698         103.173                0               0        0.0914321         70.3371                0               0
                        0.862726         14.6348                0               0         0.100761        -101.894                0               0
75.315                 0.0931187         70.2409                0               0         0.497305         102.319                0               0
                        0.100232        -103.635                0               0         0.861496         13.7608                0               0
                         0.49726         102.315                0               0        0.0929424          70.359                0               0
                        0.861504         13.7619                0               0          0.10041        -103.636                0               0
75.36                  0.0947759         70.2587                0               0         0.497209         101.404                0               0
                       0.0998241        -105.489                0               0         0.860268         12.8225                0               0
                        0.497177           101.4                0               0        0.0946016          70.375                0               0
                        0.860274         12.8236                0               0         0.100002        -105.491                0               0
75.405                 0.0965834          70.275                0               0         0.496797          100.43                0               0
                       0.0993642        -107.461                0               0         0.859116         11.8212                0               0
                        0.496777         100.427                0               0        0.0964111         70.3896                0               0
                        0.859121         11.8223                0               0        0.0995418        -107.465                0               0
75.45                  0.0985401          70.293                0               0         0.496119         99.3966                0               0
                       0.0988576        -109.559                0               0         0.858108         10.7603                0               0
                         0.49611         99.3953                0               0        0.0983699         70.4057                0               0
                        0.858112         10.7614                0               0        0.0990349        -109.564                0               0
75.495                  0.100642         70.3139                0               0         0.495221         98.3058                0               0
                       0.0983118        -111.787                0               0         0.857297         9.64384                0               0
                        0.495221         98.3055                0               0         0.100474         70.4247                0               0
                          0.8573         9.64487                0               0        0.0984892        -111.794                0               0
75.54                   0.102885         70.3374                0               0         0.494143         97.1591                0               0
                       0.0977357         -114.15                0               0         0.856719         8.47589                0               0
                        0.494151         97.1598                0               0         0.102719         70.4463                0               0
                        0.856721          8.4769                0               0        0.0979134        -114.158                0               0
75.585                  0.105261         70.3614                0               0         0.492923         95.9592                0               0
                       0.0971392        -116.651                0               0         0.856395         7.26082                0               0
                        0.492935         95.9609                0               0         0.105097         70.4684                0               0
                        0.856396          7.2618                0               0        0.0973179        -116.661                0               0
75.63                   0.107762         70.3821                0               0         0.491587         94.7098                0               0
                       0.0965333        -119.292                0               0         0.856333         6.00286                0               0
                        0.491602         94.7122                0               0         0.107601         70.4873                0               0
                        0.856334         6.00381                0               0        0.0967135        -119.303                0               0
75.675                  0.110382         70.3945                0               0         0.490159         93.4146                0               0
                       0.0959293        -122.071                0               0         0.856529         4.70604                0               0
                        0.490176         93.4175                0               0         0.110223         70.4977                0               0
                         0.85653         4.70697                0               0        0.0961115        -122.083                0               0
75.72                   0.113112         70.3925                0               0         0.488655         92.0779                0               0
                       0.0953385        -124.986                0               0         0.856971         3.37413                0               0
                        0.488671          92.081                0               0         0.112955         70.4939                0               0
                        0.856972         3.37505                0               0        0.0955231        -124.998                0               0
75.765                  0.115945         70.3696                0               0         0.487085         90.7039                0               0
                       0.0947714        -128.033                0               0          0.85764         2.01056                0               0
                        0.487099         90.7069                0               0         0.115791         70.4691                0               0
                        0.857641         2.01148                0               0         0.094959        -128.044                0               0
75.81                   0.118874          70.319                0               0         0.485455         89.2969                0               0
                       0.0942377        -131.203                0               0         0.858509        0.618446                0               0
                        0.485467         89.2997                0               0         0.118721         70.4165                0               0
                         0.85851        0.619368                0               0        0.0944285        -131.214                0               0
75.855                   0.12189         70.2339                0               0         0.483768         87.8613                0               0
                       0.0937451        -134.488                0               0         0.859548       -0.799448                0               0
                        0.483776         87.8636                0               0          0.12174         70.3295                0               0
                        0.859549       -0.798511                0               0        0.0939395        -134.497                0               0
75.9                    0.124988         70.1079                0               0         0.482021         86.4011                0               0
                       0.0932995        -137.876                0               0         0.860724        -2.24065                0               0
                        0.482026         86.4027                0               0         0.124839         70.2015                0               0
                        0.860725        -2.23969                0               0        0.0934975        -137.883                0               0
75.945                  0.128158          69.935                0               0         0.480211         84.9204                0               0
                       0.0929044        -141.354                0               0         0.862001        -3.70297                0               0
                        0.480213         84.9212                0               0         0.128011         70.0266                0               0
                        0.862002        -3.70198                0               0         0.093106        -141.359                0               0
75.99                   0.131393         69.7098                0               0         0.478334         83.4229                0               0
                       0.0925606        -144.908                0               0         0.863345        -5.18444                0               0
                        0.478334         83.4228                0               0         0.131248         69.7994                0               0
                        0.863346        -5.18342                0               0         0.092766        -144.909                0               0
76.035                  0.134682         69.4276                0               0         0.476384         81.9123                0               0
                        0.092267        -148.522                0               0         0.864718        -6.68332                0               0
                        0.476381         81.9112                0               0         0.134538         69.5152                0               0
                        0.864719        -6.68227                0               0         0.092476         -148.52                0               0
76.08                   0.138015         69.0846                0               0         0.474356         80.3919                0               0
                       0.0920199        -152.181                0               0         0.866085        -8.19801                0               0
                        0.474351         80.3899                0               0         0.137872         69.1701                0               0
                        0.866086        -8.19692                0               0        0.0922327        -152.175                0               0
76.125                  0.141379         68.6776                0               0         0.472244          78.865                0               0
                       0.0918142        -155.869                0               0         0.867412        -9.72704                0               0
                        0.472238         78.8621                0               0         0.141237         68.7611                0               0
                        0.867413        -9.72592                0               0        0.0920307         -155.86                0               0
76.17                    0.14476         68.2042                0               0         0.470044         77.3345                0               0
                       0.0916433        -159.571                0               0         0.868666         -11.269                0               0
                        0.470037         77.3308                0               0         0.144619         68.2856                0               0
                        0.868667        -11.2679                0               0        0.0918636        -159.559                0               0
76.215                  0.148142          67.663                0               0         0.467752         75.8032                0               0
                          0.0915        -163.274                0               0         0.869817        -12.8227                0               0
                        0.467746         75.7989                0               0         0.148002         67.7423                0               0
                        0.869818        -12.8215                0               0        0.0917242        -163.258                0               0
76.26                   0.151508          67.053                0               0         0.465368         74.2737                0               0
                       0.0913773        -166.963                0               0         0.870839        -14.3867                0               0
                        0.465362         74.2689                0               0         0.151368         67.1303                0               0
                        0.870839        -14.3855                0               0        0.0916055        -166.944                0               0
76.305                  0.154839         66.3741                0               0         0.462891         72.7483                0               0
                       0.0912685        -170.627                0               0         0.871709        -15.9598                0               0
                        0.462887         72.7433                0               0         0.154699         66.4493                0               0
                        0.871709        -15.9586                0               0        0.0915008        -170.606                0               0
76.35                   0.158113         65.6264                0               0         0.460326         71.2291                0               0
                       0.0911682        -174.255                0               0         0.872409        -17.5407                0               0
                        0.460323         71.2242                0               0         0.157974         65.6995                0               0
                        0.872409        -17.5395                0               0        0.0914048        -174.232                0               0
76.395                  0.161309         64.8095                0               0         0.457676         69.7182                0               0
                       0.0910728        -177.838                0               0         0.872928        -19.1279                0               0
                        0.457675         69.7135                0               0          0.16117         64.8806                0               0
                        0.872928        -19.1268                0               0        0.0913135        -177.813                0               0
76.44                   0.164403         63.9219                0               0         0.454952         68.2171                0               0
                       0.0909808         178.631                0               0         0.873262        -20.7199                0               0
                        0.454953          68.213                0               0         0.164263         63.9909                0               0
                        0.873262        -20.7188                0               0        0.0912252         178.657                0               0
76.485                  0.167366          62.956                0               0         0.452165         66.7273                0               0
                       0.0908927         175.157                0               0         0.873416        -22.3147                0               0
                        0.452167         66.7243                0               0         0.167225         63.0229                0               0
                        0.873415        -22.3137                0               0        0.0911405         175.183                0               0
76.53                    0.17017         61.8844                0               0         0.449333         65.2505                0               0
                       0.0908118         171.744                0               0         0.873401          -23.91                0               0
                        0.449335         65.2487                0               0         0.170028         61.9491                0               0
                        0.873401         -23.909                0               0        0.0910622          171.77                0               0
76.575                  0.172852         60.5797                0               0         0.446479         63.7881                0               0
                       0.0907428         168.391                0               0         0.873238        -25.5025                0               0
                        0.446478         63.7877                0               0          0.17271         60.6418                0               0
                        0.873238        -25.5016                0               0        0.0909948         168.418                0               0
76.62                   0.179151         58.5069                0               0         0.443628          62.342                0               0
                       0.0906918         165.097                0               0         0.872949        -27.0878                0               0
                        0.443623         62.3432                0               0         0.179023         58.5746                0               0
                        0.872951         -27.087                0               0        0.0909441         165.123                0               0
76.665                  0.180776          59.637                0               0         0.440814          60.915                0               0
                       0.0906633         161.853                0               0         0.872553        -28.6602                0               0
                          0.4408         60.9177                0               0         0.180629         59.6924                0               0
                        0.872557        -28.6593                0               0        0.0909148          161.88                0               0
76.71                   0.181513         58.3415                0               0         0.438069         59.5112                0               0
                       0.0906582          158.65                0               0         0.872044        -30.2123                0               0
                        0.438042         59.5148                0               0         0.181369         58.3975                0               0
                         0.87205        -30.2114                0               0        0.0909082         158.679                0               0
76.755                   0.18314         57.1133                0               0         0.435419         58.1363                0               0
                       0.0906703         155.475                0               0         0.871379        -31.7365                0               0
                        0.435379         58.1402                0               0         0.182995          57.168                0               0
                        0.871387        -31.7355                0               0        0.0909188         155.508                0               0
76.8                    0.184779         55.9164                0               0         0.432875         56.7976                0               0
                       0.0906835         152.318                0               0         0.870468        -33.2264                0               0
                        0.432823         56.8009                0               0         0.184633         55.9695                0               0
                        0.870476        -33.2252                0               0        0.0909316         152.354                0               0
76.845                  0.186284         54.7313                0               0         0.430422         55.5028                0               0
                       0.0906726          149.17                0               0         0.869187        -34.6791                0               0
                        0.430365         55.5046                0               0         0.186136         54.7826                0               0
                        0.869193        -34.6778                0               0        0.0909224         149.212                0               0
76.89                   0.187615         53.5536                0               0         0.428018          54.257                0               0
                       0.0906079         146.033                0               0         0.867416        -36.0968                0               0
                        0.427963         54.2572                0               0         0.187466         53.6032                0               0
                         0.86742        -36.0954                0               0        0.0908615          146.08                0               0
76.935                  0.188759          52.384                0               0         0.425607         53.0615                0               0
                       0.0904638         142.918                0               0          0.86509        -37.4856                0               0
                        0.425562         53.0602                0               0         0.188607          52.432                0               0
                        0.865092        -37.4841                0               0        0.0907228          142.97                0               0
76.98                   0.189713         51.2251                0               0         0.423139          51.912                0               0
                       0.0902267         139.843                0               0         0.862216         -38.853                0               0
                        0.423109         51.9102                0               0          0.18956         51.2714                0               0
                        0.862215        -38.8515                0               0        0.0904915         139.898                0               0
77.025                  0.190481         50.0797                0               0         0.420593         50.8012                0               0
                       0.0898987         136.826                0               0         0.858862        -40.2048                0               0
                        0.420577         50.7997                0               0         0.190326         50.1244                0               0
                        0.858858        -40.2034                0               0        0.0901685         136.883                0               0
77.07                    0.19107         48.9509                0               0         0.417976         49.7209                0               0
                       0.0894948         133.883                0               0         0.855126        -41.5444                0               0
                        0.417971         49.7202                0               0         0.190913         48.9941                0               0
                        0.855122        -41.5431                0               0        0.0897681         133.942                0               0
77.115                   0.19149         47.8414                0               0         0.415318         48.6645                0               0
                        0.089037         131.025                0               0          0.85111        -42.8728                0               0
                        0.415319         48.6647                0               0         0.191331          47.883                0               0
                        0.851105        -42.8716                0               0        0.0893122         131.084                0               0
77.16                   0.191752         46.7534                0               0         0.412657         47.6271                0               0
                       0.0885485         128.253                0               0         0.846904        -44.1891                0               0
                        0.412661         47.6281                0               0         0.191591         46.7936                0               0
                        0.846899         -44.188                0               0        0.0888245         128.315                0               0
77.205                  0.191868         45.6889                0               0          0.41003         46.6061                0               0