! TOUCHSTONE file generated by CST MICROWAVE STUDIO
! Date and time: Mon Jun 21 17:07:35 2021
! Project name: HIPS_d_sweep.cst
! Parameters = {a=0.735; b=0.393; d=24.9447; fmax=120; fmin=75; phi=0; theta=0}
! Header version: 2018
! Port assignment regex: !\s*Touchstone port\s*([0-9]+)\s*=\s*(CST MWS port|CST DS port)\s*([0-9]+|Zmin|Zmax)\s*\(\"(.*)\"\)(\s*mode\s*([0-9]+))?.*
! Touchstone port assignment:
! Touchstone port 1 = CST MWS port Zmin ("") mode 1
! Touchstone port 2 = CST MWS port Zmin ("") mode 2
! Touchstone port 3 = CST MWS port Zmax ("") mode 1
! Touchstone port 4 = CST MWS port Zmax ("") mode 2
! S-Parameters are not renormalized. Unphysical impedance of 0 will be written to the file.
# GHz S MA R 0
75                      0.215347         12.7056                0               0        0.0506339         6.58697                0               0
                       0.0282417        -10.1257                0               0         0.974809          103.06                0               0
                       0.0506358         6.58552                0               0         0.215375         12.6698                0               0
                        0.974814         103.062                0               0        0.0282384        -10.1458                0               0
75.045                  0.213764         12.0126                0               0        0.0466077         5.31306                0               0
                       0.0281394        -8.77758                0               0         0.975395         102.341                0               0
                       0.0466088         5.31167                0               0         0.213791         11.9767                0               0
                          0.9754         102.343                0               0        0.0281365         -8.7974                0               0
75.09                   0.211934         11.2234                0               0        0.0429829         3.91617                0               0
                       0.0280369        -7.73905                0               0         0.975966         101.529                0               0
                       0.0429837         3.91487                0               0         0.211962         11.1873                0               0
                        0.975971         101.531                0               0        0.0280343        -7.75848                0               0
75.135                  0.209856         10.3384                0               0        0.0397601         2.41872                0               0
                       0.0279281        -7.00471                0               0          0.97654         100.624                0               0
                       0.0397608         2.41753                0               0         0.209884         10.3022                0               0
                        0.976545         100.626                0               0        0.0279257        -7.02372                0               0
75.18                   0.207524         9.35829                0               0        0.0369367        0.848159                0               0
                        0.027806        -6.56845                0               0         0.977131         99.6262                0               0
                       0.0369375        0.847136                0               0         0.207552         9.32183                0               0
                        0.977137         99.6277                0               0        0.0278038        -6.58704                0               0
75.225                   0.20493         8.28398                0               0        0.0345079       -0.763613                0               0
                       0.0276626        -6.42352                0               0         0.977752         98.5362                0               0
                       0.0345089       -0.764408                0               0         0.204958         8.24729                0               0
                        0.977758         98.5377                0               0        0.0276605         -6.4417                0               0
75.27                   0.202063         7.11664                0               0         0.032467        -2.38185                0               0
                       0.0274894        -6.56267                0               0         0.978411         97.3553                0               0
                       0.0324681        -2.38236                0               0         0.202091         7.07968                0               0
                        0.978417         97.3568                0               0        0.0274874        -6.58045                0               0
75.315                   0.19891         5.85767                0               0        0.0308058         -3.9716                0               0
                       0.0272773        -6.97821                0               0         0.979113          96.085                0               0
                       0.0308071        -3.97178                0               0         0.198938         5.82042                0               0
                        0.979119         96.0864                0               0        0.0272754        -6.99562                0               0
75.36                   0.195458         4.50874                0               0        0.0295156        -5.50129                0               0
                       0.0270169        -7.66208                0               0          0.97986          94.727                0               0
                        0.029517         -5.5011                0               0         0.195487         4.47116                0               0
                        0.979866         94.7285                0               0        0.0270151        -7.67912                0               0
75.405                  0.191693         3.07181                0               0        0.0285872        -6.94679                0               0
                        0.026699        -8.60594                0               0         0.980652         93.2835                0               0
                       0.0285887        -6.94623                0               0         0.191721         3.03385                0               0
                        0.980659         93.2849                0               0        0.0266972        -8.62262                0               0
75.45                   0.187599         1.54914                0               0        0.0280114         -8.2951                0               0
                       0.0263144        -9.80128                0               0         0.981487         91.7569                0               0
                       0.0280129        -8.29417                0               0         0.187628         1.51074                0               0
                        0.981494         91.7583                0               0        0.0263127        -9.81758                0               0
75.495                  0.183163       -0.056671                0               0        0.0277789        -9.54655                0               0
                       0.0258545        -11.2396                0               0          0.98236         90.1497                0               0
                       0.0277804        -9.54528                0               0         0.183193      -0.0955713                0               0
                        0.982367         90.1511                0               0        0.0258526        -11.2554                0               0
75.54                   0.178373        -1.74268                0               0        0.0278807        -10.7149                0               0
                        0.025311        -12.9125                0               0         0.983266          88.465                0               0
                       0.0278821        -10.7133                0               0         0.178403        -1.78215                0               0
                        0.983273         88.4664                0               0        0.0253092        -12.9278                0               0
75.585                  0.173218        -3.50558                0               0        0.0283073        -11.8252                0               0
                       0.0246771        -14.8121                0               0         0.984198         86.7058                0               0
                       0.0283086        -11.8233                0               0         0.173248         -3.5457                0               0
                        0.984205         86.7072                0               0        0.0246751        -14.8269                0               0
75.63                   0.167688        -5.34173                0               0        0.0290486        -12.9092                0               0
                       0.0239465        -16.9315                0               0          0.98515         84.8755                0               0
                       0.0290499        -12.9071                0               0         0.167719         -5.3826                0               0
                        0.985157         84.8769                0               0        0.0239443        -16.9456                0               0
75.675                  0.161779        -7.24718                0               0         0.030094        -14.0013                0               0
                       0.0231145        -19.2652                0               0         0.986113         82.9776                0               0
                       0.0300951         -13.999                0               0          0.16181        -7.28891                0               0
                         0.98612          82.979                0               0        0.0231122        -19.2784                0               0
75.72                   0.155488        -9.21769                0               0        0.0314314        -15.1335                0               0
                        0.022178          -21.81                0               0         0.987082         81.0157                0               0
                       0.0314324         -15.131                0               0          0.15552        -9.26043                0               0
                        0.987089         81.0172                0               0        0.0221754        -21.8221                0               0
75.765                  0.148817        -11.2488                0               0        0.0330478        -16.3323                0               0
                       0.0211349         -24.566                0               0          0.98805         78.9938                0               0
                       0.0330487        -16.3298                0               0         0.148849        -11.2927                0               0
                        0.988057         78.9953                0               0        0.0211321        -24.5767                0               0
75.81                    0.14177         -13.336                0               0        0.0349289        -17.6178                0               0
                       0.0199852        -27.5382                0               0          0.98901         76.9157                0               0
                       0.0349296        -17.6152                0               0         0.141802        -13.3813                0               0
                        0.989017         76.9172                0               0        0.0199821        -27.5473                0               0
75.855                  0.134356        -15.4746                0               0        0.0370591        -19.0025                0               0
                       0.0187301        -30.7387                0               0         0.989959         74.7855                0               0
                       0.0370597        -18.9999                0               0         0.134389        -15.5214                0               0
                        0.989966         74.7871                0               0        0.0187266        -30.7458                0               0
75.9                    0.126587        -17.6599                0               0        0.0394218        -20.4929                0               0
                       0.0173725        -34.1904                0               0         0.990891         72.6075                0               0
                       0.0394223        -20.4903                0               0          0.12662        -17.7086                0               0
                        0.990898         72.6091                0               0        0.0173686        -34.1951                0               0
75.945                  0.118479        -19.8873                0               0        0.0419991        -22.0904                0               0
                       0.0159167        -37.9327                0               0         0.991803         70.3859                0               0
                       0.0419995        -22.0879                0               0         0.118512        -19.9382                0               0
                         0.99181         70.3875                0               0        0.0159125        -37.9344                0               0
75.99                   0.110049        -22.1522                0               0        0.0447721        -23.7927                0               0
                       0.0143691        -42.0317                0               0          0.99269         68.1252                0               0
                       0.0447724        -23.7904                0               0         0.110083        -22.2058                0               0
                        0.992696         68.1268                0               0        0.0143642        -42.0297                0               0
76.035                  0.101319        -24.4501                0               0        0.0477206        -25.5952                0               0
                       0.0127376        -46.5986                0               0         0.993547         65.8297                0               0
                       0.0477208         -25.593                0               0         0.101353         -24.507                0               0
                        0.993553         65.8313                0               0        0.0127322         -46.592                0               0
76.08                  0.0923115        -26.7763                0               0        0.0508233        -27.4917                0               0
                       0.0110335        -51.8274                0               0         0.994368         63.5042                0               0
                       0.0508234        -27.4897                0               0        0.0923461        -26.8372                0               0
                        0.994373         63.5058                0               0        0.0110273        -51.8151                0               0
76.125                 0.0830514        -29.1256                0               0        0.0540575        -29.4757                0               0
                      0.00927319        -58.0759                0               0         0.995143         61.1533                0               0
                       0.0540575        -29.4739                0               0        0.0830864        -29.1916                0               0
                        0.995147         61.1549                0               0       0.00926605        -58.0566                0               0
76.17                  0.0735651        -31.4918                0               0        0.0573994        -31.5406                0               0
                      0.00748407        -66.0603                0               0         0.995861         58.7817                0               0
                       0.0573993         -31.539                0               0        0.0736005        -31.5644                0               0
                        0.995865         58.7833                0               0       0.00747569        -66.0331                0               0
76.215                 0.0638806        -33.8665                0               0        0.0608239        -33.6804                0               0
                      0.00572153         -77.372                0               0         0.996505         56.3942                0               0
                       0.0608237         -33.679                0               0        0.0639164        -33.9478                0               0
                        0.996508         56.3958                0               0       0.00571152        -77.3396                0               0
76.26                  0.0540276        -36.2364                0               0        0.0643045        -35.8895                0               0
                      0.00412574        -95.8676                0               0         0.997053         53.9956                0               0
                       0.0643043        -35.8883                0               0        0.0540638        -36.3298                0               0
                        0.997055         53.9972                0               0       0.00411375        -95.8535                0               0
76.305                 0.0440372        -38.5775                0               0        0.0678142        -38.1631                0               0
                      0.00310131        -128.921                0               0         0.997477         51.5907                0               0
                       0.0678139        -38.1622                0               0        0.0440736        -38.6888                0               0
                        0.997479         51.5923                0               0       0.00308878        -129.021                0               0
76.35                  0.0339425        -40.8389                0               0        0.0713248        -40.4975                0               0
                      0.00333832        -170.969                0               0         0.997742         49.1842                0               0
                       0.0713245        -40.4967                0               0        0.0339792         -40.979                0               0
                        0.997744         49.1858                0               0       0.00333087        -171.199                0               0
76.395                 0.0237791        -42.8846                0               0        0.0748081        -42.8893                0               0
                      0.00469721         160.829                0               0         0.997809         46.7807                0               0
                       0.0748077        -42.8887                0               0        0.0238158        -43.0787                0               0
                        0.997809         46.7823                0               0       0.00469569         160.621                0               0
76.44                  0.0135874        -44.1755                0               0        0.0782359        -45.3361                0               0
                      0.00653111         144.835                0               0         0.997628         44.3846                0               0
                       0.0782356        -45.3356                0               0        0.0136231        -44.5066                0               0
                        0.997628         44.3862                0               0       0.00653337          144.67                0               0
76.485                0.00344943        -37.8458                0               0        0.0815808        -47.8357                0               0
                      0.00854314         134.415                0               0         0.997149         41.9999                0               0
                       0.0815804        -47.8354                0               0       0.00347437        -39.1753                0               0
                        0.997149         42.0014                0               0       0.00854795         134.279                0               0
76.53                  0.0068096          121.58                0               0        0.0848165        -50.3864                0               0
                       0.0106244         126.603                0               0         0.996318         39.6303                0               0
                       0.0848162        -50.3862                0               0       0.00676184         122.142                0               0
                        0.996317         39.6319                0               0        0.0106312         126.485                0               0
76.575                 0.0168442         122.539                0               0        0.0879188        -52.9866                0               0
                       0.0127238         120.156                0               0         0.995078         37.2794                0               0
                       0.0879185        -52.9864                0               0        0.0167999         122.765                0               0
                        0.995076         37.2809                0               0        0.0127323         120.051                0               0
76.62                  0.0267619         120.802                0               0        0.0908658        -55.6345                0               0
                       0.0148094         114.498                0               0         0.993376         34.9499                0               0
                       0.0908656        -55.6343                0               0        0.0267179          120.94                0               0
                        0.993374         34.9515                0               0        0.0148194         114.402                0               0
76.665                 0.0365049         118.571                0               0        0.0936387         -58.328                0               0
                       0.0168567         109.336                0               0         0.991165         32.6445                0               0
                       0.0936384        -58.3278                0               0        0.0364606         118.667                0               0
                        0.991163         32.6462                0               0        0.0168682         109.246                0               0
76.71                  0.0460279         116.166                0               0        0.0962216        -61.0646                0               0
                       0.0188448         104.507                0               0         0.988405         30.3655                0               0
                       0.0962215        -61.0644                0               0        0.0459832         116.239                0               0
                        0.988403         30.3671                0               0        0.0188576         104.423                0               0
76.755                 0.0552895         113.687                0               0        0.0986027        -63.8412                0               0
                       0.0207544         99.9204                0               0         0.985068         28.1145                0               0
                       0.0986026         -63.841                0               0        0.0552442         113.745                0               0
                        0.985066         28.1162                0               0        0.0207686         99.8395                0               0
76.8                   0.0642519         111.178                0               0         0.100773         -66.654                0               0
                       0.0225683         95.5197                0               0         0.981137         25.8934                0               0
                        0.100773        -66.6537                0               0        0.0642059         111.225                0               0
                        0.981135         25.8951                0               0        0.0225838         95.4419                0               0
76.845                 0.0728821         108.663                0               0         0.102729        -69.4983                0               0
                       0.0242708         91.2726                0               0         0.976611         23.7033                0               0
                        0.102729         -69.498                0               0        0.0728355         108.702                0               0
                        0.976609          23.705                0               0        0.0242876         91.1972                0               0
76.89                   0.081153         106.158                0               0         0.104467        -72.3691                0               0
                       0.0258481         87.1589                0               0         0.971503         21.5455                0               0
                        0.104467        -72.3688                0               0        0.0811058         106.192                0               0
                        0.971501         21.5472                0               0        0.0258663         87.0856                0               0
76.935                 0.0890438         103.677                0               0          0.10599        -75.2604                0               0
                       0.0272892         83.1661                0               0         0.965839          19.421                0               0
                         0.10599        -75.2601                0               0        0.0889961         103.706                0               0
                        0.965837         19.4228                0               0        0.0273088         83.0944                0               0
76.98                  0.0965408         101.228                0               0         0.107301         -78.166                0               0
                       0.0285855          79.285                0               0         0.959661         17.3307                0               0
                        0.107301        -78.1657                0               0        0.0964927         101.254                0               0
                         0.95966         17.3325                0               0        0.0286065         79.2148                0               0
77.025                  0.103637         98.8204                0               0         0.108407        -81.0792                0               0
                        0.029732          75.508                0               0          0.95302         15.2754                0               0
                        0.108407        -81.0789                0               0         0.103589         98.8427                0               0
                        0.953019         15.2772                0               0        0.0297544         75.4392                0               0
77.07                   0.110333         96.4602                0               0         0.109317        -83.9931                0               0
                       0.0307273         71.8273                0               0         0.945978         13.2558                0               0
                        0.109317        -83.9928                0               0         0.110284         96.4801                0               0
                        0.945977         13.2576                0               0        0.0307512         71.7597                0               0
77.115                  0.116633         94.1533                0               0         0.110041        -86.9009                0               0
                       0.0315749         68.2341                0               0         0.938604         11.2722                0               0
                        0.110041        -86.9006                0               0         0.116584          94.171                0               0
                        0.938602          11.274                0               0        0.0316002         68.1678                0               0
77.16                   0.122548         91.9041                0               0          0.11059        -89.7958                0               0
                       0.0322832         64.7201                0               0         0.930969         9.32493                0               0
                         0.11059        -89.7956                0               0         0.122499         91.9201                0               0
                        0.930968         9.32672                0               0          0.03231          64.655                0               0
77.205                  0.128093         89.7161                0               0         0.110975        -92.6715                0               0