! TOUCHSTONE file generated by CST MICROWAVE STUDIO
! Date and time: Mon Jun 21 17:07:27 2021
! Project name: HIPS_d_sweep.cst
! Parameters = {a=0.735; b=0.393; d=24.2412; fmax=120; fmin=75; phi=0; theta=0}
! Header version: 2018
! Port assignment regex: !\s*Touchstone port\s*([0-9]+)\s*=\s*(CST MWS port|CST DS port)\s*([0-9]+|Zmin|Zmax)\s*\(\"(.*)\"\)(\s*mode\s*([0-9]+))?.*
! Touchstone port assignment:
! Touchstone port 1 = CST MWS port Zmin ("") mode 1
! Touchstone port 2 = CST MWS port Zmin ("") mode 2
! Touchstone port 3 = CST MWS port Zmax ("") mode 1
! Touchstone port 4 = CST MWS port Zmax ("") mode 2
! S-Parameters are not renormalized. Unphysical impedance of 0 will be written to the file.
# GHz S MA R 0
75                      0.161436         93.3399                0               0        0.0131841         83.2772                0               0
                       0.0143269         85.2181                0               0         0.986695        -176.674                0               0
                        0.013185         83.2757                0               0         0.161398         93.1807                0               0
                        0.986689        -176.674                0               0        0.0143523         84.3912                0               0
75.045                  0.163187          92.666                0               0       0.00927912          79.384                0               0
                       0.0137656          86.893                0               0         0.986524        -177.381                0               0
                      0.00928026         79.3814                0               0         0.163152         92.5093                0               0
                        0.986518         -177.38                0               0        0.0137854         86.0271                0               0
75.09                   0.165215         91.8828                0               0       0.00578951         70.3382                0               0
                       0.0133581         88.4497                0               0         0.986206        -178.179                0               0
                      0.00579063         70.3361                0               0          0.16518          91.729                0               0
                        0.986199        -178.179                0               0        0.0133709          87.553                0               0
75.135                  0.167525         90.9981                0               0       0.00305924         44.7563                0               0
                       0.0131097         89.8125                0               0          0.98578         -179.07                0               0
                      0.00306011         44.7609                0               0         0.167489         90.8476                0               0
                        0.985774         -179.07                0               0         0.013115         88.8959                0               0
75.18                   0.170115         90.0188                0               0       0.00243502        -17.4619                0               0
                       0.0130207         90.9017                0               0         0.985281         179.948                0               0
                      0.00243513        -17.4466                0               0         0.170079         89.8719                0               0
                        0.985275         179.948                0               0        0.0130187         89.9779                0               0
75.225                  0.172976         88.9507                0               0       0.00396293        -53.2979                0               0
                       0.0130866          91.645                0               0         0.984736         178.877                0               0
                       0.0039627        -53.2916                0               0          0.17294         88.8075                0               0
                         0.98473         178.877                0               0        0.0130784         90.7265                0               0
75.27                   0.176095         87.7979                0               0       0.00566658        -65.9949                0               0
                       0.0132993         91.9879                0               0         0.984164         177.718                0               0
                      0.00566629        -65.9912                0               0         0.176059         87.6588                0               0
                        0.984157         177.718                0               0        0.0132864         91.0858                0               0
75.315                  0.179452         86.5635                0               0       0.00706759        -72.2869                0               0
                        0.013648         91.8999                0               0         0.983576         176.474                0               0
                      0.00706722        -72.2834                0               0         0.179416         86.4288                0               0
                        0.983569         176.474                0               0         0.013632         91.0231                0               0
75.36                   0.183023         85.2499                0               0       0.00809671        -76.1732                0               0
                       0.0141196         91.3762                0               0         0.982979         175.146                0               0
                      0.00809622         -76.169                0               0         0.182988         85.1197                0               0
                        0.982972         175.146                0               0        0.0141022         90.5308                0               0
75.405                   0.18678         83.8585                0               0       0.00875859        -78.8204                0               0
                       0.0147004         90.4334                0               0         0.982372         173.738                0               0
                      0.00875795        -78.8149                0               0         0.186746         83.7329                0               0
                        0.982365         173.739                0               0        0.0146829         89.6234                0               0
75.45                   0.190691         82.3904                0               0       0.00908038        -80.6185                0               0
                       0.0153759         89.1044                0               0         0.981752         172.253                0               0
                      0.00907958        -80.6114                0               0         0.190659         82.2696                0               0
                        0.981745         172.254                0               0        0.0153596         88.3316                0               0
75.495                   0.19472          80.847                0               0       0.00909872        -81.6669                0               0
                       0.0161317         87.4311                0               0         0.981111         170.694                0               0
                      0.00909778        -81.6581                0               0         0.194691         80.7309                0               0
                        0.981103         170.695                0               0        0.0161174         86.6962                0               0
75.54                   0.198831         79.2295                0               0       0.00885517        -81.9124                0               0
                       0.0169535         85.4592                0               0         0.980437         169.065                0               0
                      0.00885413        -81.9018                0               0         0.198803         79.1183                0               0
                        0.980429         169.065                0               0        0.0169417         84.7618                0               0
75.585                  0.202982         77.5401                0               0       0.00839492          -81.18                0               0
                       0.0178275         83.2339                0               0         0.979719         167.369                0               0
                      0.00839385        -81.1674                0               0         0.202955         77.4336                0               0
                        0.979711         167.369                0               0        0.0178183         82.5731                0               0
75.63                   0.207133         75.7813                0               0       0.00776827        -79.1536                0               0
                       0.0187403          80.797                0               0         0.978946          165.61                0               0
                      0.00776725        -79.1389                0               0         0.207107         75.6796                0               0
                        0.978938         165.611                0               0        0.0187337         80.1715                0               0
75.675                  0.211243         73.9566                0               0       0.00703566        -75.3227                0               0
                       0.0196793          78.186                0               0         0.978109         163.793                0               0
                      0.00703479        -75.3059                0               0         0.211217         73.8596                0               0
                          0.9781         163.794                0               0        0.0196751         77.5942                0               0
75.72                   0.215271         72.0704                0               0       0.00627834         -68.923                0               0
                       0.0206329         75.4327                0               0           0.9772         161.922                0               0
                      0.00627771         -68.904                0               0         0.215244          71.978                0               0
                         0.97719         161.923                0               0        0.0206307          74.873                0               0
75.765                   0.21918         70.1275                0               0       0.00561584        -59.0089                0               0
                       0.0215901         72.5641                0               0         0.976217         160.001                0               0
                      0.00561555        -58.9887                0               0         0.219151         70.0397                0               0
                        0.976208         160.002                0               0        0.0215897         72.0347                0               0
75.81                   0.222935         68.1336                0               0       0.00522003        -45.0886                0               0
                       0.0225414          69.602                0               0         0.975166         158.035                0               0
                      0.00522013        -45.0693                0               0         0.222904         68.0503                0               0
                        0.975156         158.036                0               0        0.0225422         69.1011                0               0
75.855                  0.226507         66.0947                0               0       0.00528119        -28.5627                0               0
                        0.023478         66.5641                0               0         0.974056         156.028                0               0
                      0.00528159        -28.5473                0               0         0.226473          66.016                0               0
                        0.974046         156.029                0               0        0.0234799         66.0897                0               0
75.9                    0.229871          64.017                0               0       0.00589654        -12.8733                0               0
                       0.0243926         63.4641                0               0         0.972905         153.984                0               0
                      0.00589702        -12.8632                0               0         0.229833         63.9428                0               0
                        0.972895         153.985                0               0        0.0243955         63.0142                0               0
75.945                  0.233007         61.9066                0               0       0.00701162       -0.609744                0               0
                        0.025279         60.3127                0               0         0.971738         151.908                0               0
                      0.00701198       -0.603673                0               0         0.232966         61.8369                0               0
                        0.971728         151.909                0               0        0.0252828         59.8854                0               0
75.99                   0.235902         59.7693                0               0       0.00850452         7.99482                0               0
                        0.026132         57.1183                0               0          0.97059         149.804                0               0
                      0.00850463         7.99835                0               0         0.235858         59.7041                0               0
                        0.970579         149.804                0               0         0.026137         56.7115                0               0
76.035                  0.238546         57.6105                0               0        0.0102701         13.8046                0               0
                       0.0269478         53.8874                0               0         0.969497         147.675                0               0
                       0.0102699         13.8066                0               0         0.238499         57.5497                0               0
                        0.969487         147.676                0               0        0.0269542         53.4992                0               0
76.08                   0.240934         55.4349                0               0        0.0122367          17.702                0               0
                       0.0277232         50.6256                0               0         0.968505         145.526                0               0
                       0.0122363         17.7028                0               0         0.240885         55.3785                0               0
                        0.968494         145.526                0               0        0.0277314         50.2541                0               0
76.125                   0.24306         53.2463                0               0        0.0143565         20.3175                0               0
                        0.028456         47.3381                0               0         0.967658         143.359                0               0
                       0.0143558         20.3175                0               0         0.243011         53.1943                0               0
                        0.967647          143.36                0               0        0.0284666         46.9817                0               0
76.17                   0.244922         51.0483                0               0        0.0165937           22.06                0               0
                       0.0291441         44.0306                0               0         0.966998         141.179                0               0
                       0.0165929         22.0593                0               0         0.244873         51.0006                0               0
                        0.966988          141.18                0               0        0.0291578         43.6879                0               0
76.215                  0.246515         48.8435                0               0        0.0189188         23.1871                0               0
                       0.0297857         40.7096                0               0         0.966565         138.989                0               0
                        0.018918         23.1858                0               0         0.246466         48.8001                0               0
                        0.966554         138.989                0               0        0.0298029         40.3796                0               0
76.26                   0.247832         46.6343                0               0        0.0213045          23.859                0               0
                       0.0303781         37.3829                0               0         0.966382         136.792                0               0
                       0.0213038         23.8572                0               0         0.247784         46.5951                0               0
                        0.966371         136.792                0               0        0.0303992         37.0647                0               0
76.305                   0.24886         44.4228                0               0        0.0237247         24.1733                0               0
                       0.0309173         34.0595                0               0         0.966459         134.592                0               0
                       0.0237242         24.1712                0               0         0.248815         44.3878                0               0
                        0.966447         134.592                0               0        0.0309427         33.7524                0               0
76.35                   0.249586         42.2109                0               0        0.0261545         24.1872                0               0
                       0.0313977         30.7489                0               0         0.966783         132.392                0               0
                       0.0261542         24.1848                0               0         0.249543           42.18                0               0
                        0.966771         132.393                0               0        0.0314274         30.4524                0               0
76.395                   0.24999         40.0007                0               0        0.0285709         23.9319                0               0
                       0.0318113         27.4605                0               0         0.967315         130.197                0               0
                       0.0285709         23.9295                0               0         0.249948          39.974                0               0
                        0.967303         130.197                0               0         0.031845          27.174                0               0
76.44                   0.250048         37.7945                0               0        0.0309542          23.423                0               0
                       0.0321481         24.2026                0               0         0.967989         128.009                0               0
                       0.0309546         23.4207                0               0         0.250007         37.7721                0               0
                        0.967977          128.01                0               0        0.0321855         23.9253                0               0
76.485                  0.249735         35.5954                0               0        0.0332886         22.6676                0               0
                       0.0323967         20.9812                0               0         0.968712         125.832                0               0
                       0.0332894         22.6655                0               0         0.249695         35.5772                0               0
                          0.9687         125.833                0               0        0.0324372         20.7122                0               0
76.53                   0.249025         33.4066                0               0         0.035563         21.6694                0               0
                       0.0325449         17.8003                0               0         0.969371         123.668                0               0
                       0.0355641         21.6675                0               0         0.248985         33.3927                0               0
                        0.969358         123.669                0               0         0.032588         17.5383                0               0
76.575                  0.247894         31.2323                0               0        0.0377702         20.4322                0               0
                       0.0325811         14.6617                0               0         0.969836          121.52                0               0
                       0.0377716         20.4305                0               0         0.247854         31.2228                0               0
                        0.969823         121.521                0               0        0.0326265         14.4055                0               0
76.62                   0.246324         29.0771                0               0        0.0399069         18.9618                0               0
                       0.0324957         11.5661                0               0         0.969976         119.389                0               0
                       0.0399086         18.9604                0               0         0.246282         29.0721                0               0
                        0.969964          119.39                0               0        0.0325431         11.3145                0               0
76.665                  0.244299         26.9467                0               0        0.0419724         17.2674                0               0
                       0.0322814         8.51458                0               0         0.969669         117.276                0               0
                       0.0419742         17.2662                0               0         0.244256         26.9461                0               0
                        0.969657         117.277                0               0        0.0323308         8.26641                0               0
76.71                   0.241815         24.8469                0               0         0.043967         15.3611                0               0
                       0.0319343         5.50945                0               0          0.96881         115.181                0               0
                        0.043969         15.3601                0               0         0.241772          24.851                0               0
                        0.968798         115.182                0               0        0.0319856         5.26376                0               0
76.755                  0.238877         22.7844                0               0        0.0458916         13.2582                0               0
                       0.0314536         2.55572                0               0          0.96732         113.104                0               0
                       0.0458937         13.2574                0               0         0.238834         22.7931                0               0
                        0.967309         113.105                0               0         0.031507         2.31173                0               0
76.8                    0.235498         20.7658                0               0        0.0477466         10.9761                0               0
                       0.0308421       -0.338441                0               0         0.965152         111.046                0               0
                       0.0477487         10.9754                0               0         0.235456         20.7793                0               0
                        0.965141         111.047                0               0        0.0308976       -0.581419                0               0
76.845                  0.231703          18.798                0               0        0.0495312         8.53376                0               0
                       0.0301054         -3.1614                0               0         0.962291         109.007                0               0
                       0.0495333         8.53321                0               0         0.231662         18.8164                0               0
                         0.96228         109.008                0               0        0.0301632        -3.40401                0               0
76.89                   0.227524         16.8876                0               0        0.0512436          5.9511                0               0
                       0.0292521        -5.89813                0               0          0.95875         106.988                0               0
                       0.0512457         5.95063                0               0         0.227486          16.911                0               0
                         0.95874         106.988                0               0        0.0293122        -6.14105                0               0
76.935                  0.223001         15.0407                0               0        0.0528806         3.24829                0               0
                       0.0282932        -8.53043                0               0         0.954569         104.989                0               0
                       0.0528827         3.24788                0               0         0.222967         15.0693                0               0
                        0.954559          104.99                0               0        0.0283558         -8.7745                0               0
76.98                   0.218178         13.2628                0               0        0.0544384        0.445343                0               0
                       0.0272419        -11.0374                0               0         0.949807         103.013                0               0
                       0.0544404        0.444994                0               0         0.218149         13.2967                0               0
                        0.949797         103.014                0               0        0.0273069        -11.2836                0               0
77.025                  0.213103         11.5587                0               0        0.0559124        -2.43821                0               0
                       0.0261131        -13.3959                0               0         0.944537          101.06                0               0
                       0.0559144         -2.4385                0               0         0.213079         11.5979                0               0
                        0.944528         101.061                0               0        0.0261804        -13.6455                0               0
77.07                   0.207825         9.93194                0               0        0.0572982        -5.38363                0               0
                       0.0249226        -15.5808                0               0         0.938842         99.1317                0               0
                       0.0573002        -5.38387                0               0         0.207806         9.97676                0               0
                        0.938833         99.1325                0               0        0.0249921        -15.8355                0               0
77.115                  0.202389         8.38538                0               0        0.0585916        -8.37319                0               0
                       0.0236873        -17.5656                0               0         0.932809         97.2294                0               0
                       0.0585936        -8.37337                0               0         0.202378          8.4359                0               0
                          0.9328         97.2302                0               0        0.0237586        -17.8273                0               0
77.16                   0.196843         6.92073                0               0        0.0597893        -11.3903                0               0
                       0.0224241        -19.3227                0               0         0.926522          95.354                0               0
                       0.0597913        -11.3904                0               0         0.196838         6.97711                0               0
                        0.926514         95.3549                0               0        0.0224968        -19.5936                0               0
77.205                  0.191225         5.53876                0               0         0.060889        -14.4198                0               0