! TOUCHSTONE file generated by CST MICROWAVE STUDIO
! Date and time: Mon Jun 21 17:07:34 2021
! Project name: HIPS_d_sweep.cst
! Parameters = {a=0.735; b=0.393; d=24.8945; fmax=120; fmin=75; phi=0; theta=0}
! Header version: 2018
! Port assignment regex: !\s*Touchstone port\s*([0-9]+)\s*=\s*(CST MWS port|CST DS port)\s*([0-9]+|Zmin|Zmax)\s*\(\"(.*)\"\)(\s*mode\s*([0-9]+))?.*
! Touchstone port assignment:
! Touchstone port 1 = CST MWS port Zmin ("") mode 1
! Touchstone port 2 = CST MWS port Zmin ("") mode 2
! Touchstone port 3 = CST MWS port Zmax ("") mode 1
! Touchstone port 4 = CST MWS port Zmax ("") mode 2
! S-Parameters are not renormalized. Unphysical impedance of 0 will be written to the file.
# GHz S MA R 0
75                       0.22707         18.4617                0               0        0.0476488         10.9464                0               0
                       0.0300406        -2.78435                0               0         0.972254         108.818                0               0
                       0.0476477         10.9485                0               0         0.227044         18.4631                0               0
                        0.972249         108.819                0               0        0.0300206        -2.68591                0               0
75.045                  0.225544         17.6963                0               0        0.0434933         9.24223                0               0
                        0.029776        -1.70314                0               0         0.973965         108.152                0               0
                       0.0434923         9.24417                0               0          0.22553         17.6983                0               0
                        0.973957         108.152                0               0        0.0297577        -1.60304                0               0
75.09                   0.223886         16.8785                0               0        0.0398456         7.53889                0               0
                       0.0295942       -0.780477                0               0         0.974885          107.37                0               0
                       0.0398447         7.54086                0               0         0.223878         16.8804                0               0
                        0.974875         107.371                0               0        0.0295772       -0.678049                0               0
75.135                  0.222087         16.0008                0               0        0.0366641         5.84081                0               0
                       0.0294772      -0.0689904                0               0         0.975296         106.474                0               0
                       0.0366632         5.84295                0               0          0.22208          16.002                0               0
                        0.975286         106.474                0               0        0.0294612        0.036311                0               0
75.18                   0.220136         15.0547                0               0        0.0339142         4.15422                0               0
                       0.0294019        0.390837                0               0         0.975433         105.468                0               0
                       0.0339132          4.1566                0               0         0.220124         15.0549                0               0
                        0.975425         105.468                0               0        0.0293869        0.499355                0               0
75.225                  0.218014         14.0314                0               0         0.031567         2.48712                0               0
                       0.0293429        0.572841                0               0         0.975482         104.358                0               0
                       0.0315659         2.48978                0               0         0.217994         14.0306                0               0
                        0.975476         104.359                0               0        0.0293288        0.684707                0               0
75.27                   0.215696         12.9218                0               0        0.0295986        0.849113                0               0
                       0.0292751        0.464923                0               0         0.975579         103.151                0               0
                       0.0295975        0.852049                0               0         0.215667         12.9203                0               0
                        0.975574         103.152                0               0        0.0292618        0.580101                0               0
75.315                  0.213151         11.7173                0               0        0.0279897       -0.749109                0               0
                       0.0291752       0.0669301                0               0         0.975812         101.856                0               0
                       0.0279884       -0.745939                0               0          0.21311         11.7157                0               0
                        0.975808         101.857                0               0        0.0291626        0.185278                0               0
75.36                   0.210336         10.4116                0               0        0.0267243        -2.29661                0               0
                       0.0290236       -0.612474                0               0          0.97623         100.478                0               0
                        0.026723        -2.29327                0               0         0.210285         10.4105                0               0
                        0.976227         100.479                0               0        0.0290116       -0.491127                0               0
75.405                  0.207204         9.00123                0               0        0.0257899        -3.78336                0               0
                       0.0288047        -1.55913                0               0         0.976851         99.0244                0               0
                       0.0257884        -3.77994                0               0         0.207148         9.00097                0               0
                        0.976847         99.0255                0               0        0.0287931        -1.43492                0               0
75.45                   0.203709         7.48736                0               0        0.0251764        -5.20166                0               0
                       0.0285074        -2.75633                0               0         0.977661         97.5007                0               0
                       0.0251748        -5.19822                0               0         0.203652          7.4877                0               0
                        0.977658         97.5018                0               0        0.0284959        -2.62933                0               0
75.495                  0.199811          5.8761                0               0        0.0248761        -6.54734                0               0
                       0.0281241        -4.18721                0               0         0.978629         95.9113                0               0
                       0.0248744        -6.54397                0               0         0.199758         5.87615                0               0
                        0.978625         95.9124                0               0        0.0281126        -4.05737                0               0
75.54                   0.195487         4.17778                0               0        0.0248829        -7.82081                0               0
                       0.0276508        -5.83636                0               0         0.979704         94.2592                0               0
                       0.0248812        -7.81754                0               0         0.195441         4.17609                0               0
                        0.979699         94.2603                0               0        0.0276391        -5.70355                0               0
75.585                  0.190737          2.4049                0               0         0.025192        -9.02728                0               0
                       0.0270859        -7.69102                0               0         0.980829         92.5462                0               0
                       0.0251902        -9.02413                0               0         0.190698         2.39992                0               0
                        0.980824         92.5472                0               0        0.0270737        -7.55496                0               0
75.63                   0.185579        0.569325                0               0        0.0257993        -10.1764                0               0
                       0.0264296        -9.74166                0               0         0.981941         90.7726                0               0
                       0.0257974        -10.1734                0               0         0.185543          0.5599                0               0
                        0.981936         90.7735                0               0        0.0264168        -9.60199                0               0
75.675                  0.180045        -1.32022                0               0        0.0267007        -11.2814                0               0
                       0.0256832        -11.9825                0               0         0.982988          88.937                0               0
                       0.0266988        -11.2784                0               0         0.180009         -1.3345                0               0
                        0.982984         88.9378                0               0        0.0256696        -11.8387                0               0
75.72                   0.174171        -3.25953                0               0        0.0278916        -12.3576                0               0
                       0.0248486        -14.4117                0               0         0.983932         87.0369                0               0
                       0.0278897        -12.3546                0               0         0.174133        -3.27828                0               0
                         0.98393         87.0376                0               0        0.0248342        -14.2633                0               0
75.765                  0.167992        -5.24895                0               0        0.0293666        -13.4212                0               0
                       0.0239281        -17.0317                0               0         0.984771         85.0687                0               0
                       0.0293647        -13.4182                0               0         0.167948        -5.27121                0               0
                         0.98477         85.0694                0               0        0.0239127        -16.8781                0               0
75.81                   0.161529        -7.29231                0               0        0.0311184        -14.4885                0               0
                       0.0229239        -19.8499                0               0         0.985541         83.0289                0               0
                       0.0311164        -14.4853                0               0         0.161482        -7.31689                0               0
                        0.985542         83.0296                0               0        0.0229074        -19.6903                0               0
75.855                  0.154796        -9.39551                0               0        0.0331375         -15.575                0               0
                       0.0218378         -22.879                0               0         0.986331         80.9153                0               0
                       0.0331355        -15.5717                0               0         0.154746        -9.42137                0               0
                        0.986333          80.916                0               0        0.0218201        -22.7125                0               0
75.9                    0.147794        -11.5652                0               0        0.0354119        -16.6954                0               0
                       0.0206718        -26.1384                0               0         0.987266         78.7284                0               0
                       0.0354099        -16.6919                0               0         0.147744        -11.5916                0               0
                        0.987268         78.7292                0               0        0.0206528        -25.9642                0               0
75.945                  0.140518        -13.8077                0               0        0.0379268        -17.8632                0               0
                       0.0194275        -29.6567                0               0          0.98849         76.4733                0               0
                       0.0379247        -17.8596                0               0         0.140472        -13.8345                0               0
                        0.988491         76.4743                0               0        0.0194071        -29.4735                0               0
75.99                   0.132961        -16.1285                0               0        0.0406642        -19.0913                0               0
                       0.0181069        -33.4741                0               0         0.990125         74.1598                0               0
                       0.0406619        -19.0876                0               0         0.132921         -16.156                0               0
                        0.990124         74.1608                0               0        0.0180849        -33.2808                0               0
76.035                  0.125112        -18.5319                0               0        0.0436029        -20.3918                0               0
                       0.0167123         -37.649                0               0         0.992231         71.8013                0               0
                       0.0436006        -20.3879                0               0          0.12508        -18.5607                0               0
                        0.992228         71.8024                0               0        0.0166885        -37.4441                0               0
76.08                   0.116964        -21.0211                0               0        0.0467192        -21.7758                0               0
                       0.0152474        -42.2666                0               0         0.994785         69.4132                0               0
                       0.0467166        -21.7719                0               0          0.11694        -21.0524                0               0
                        0.994778         69.4142                0               0        0.0152215        -42.0485                0               0
76.125                  0.108513        -23.5981                0               0        0.0499863        -23.2539                0               0
                        0.013718        -47.4561                0               0         0.997676         67.0097                0               0
                       0.0499837          -23.25                0               0         0.108497        -23.6333                0               0
                        0.997667         67.0106                0               0        0.0136896         -47.223                0               0
76.17                   0.099759        -26.2644                0               0        0.0533759        -24.8355                0               0
                       0.0121338        -53.4207                0               0                1         64.6024                0               0
                       0.0533731        -24.8317                0               0        0.0997513        -26.3053                0               0
                               1         64.6031                0               0        0.0121025         -53.171                0               0
76.215                 0.0907113        -29.0211                0               0        0.0568577        -26.5288                0               0
                       0.0105115         -60.496                0               0                1         62.1991                0               0
                       0.0568548        -26.5252                0               0        0.0907102        -29.0699                0               0
                               1         62.1997                0               0        0.0104766        -60.2292                0               0
76.26                  0.0813848        -31.8705                0               0        0.0604006        -28.3404                0               0
                      0.00888156        -69.2641                0               0                1         59.8043                0               0
                       0.0603977         -28.337                0               0        0.0813885          -31.93                0               0
                               1         59.8048                0               0       0.00884225        -68.9837                0               0
76.305                 0.0718025        -34.8175                0               0        0.0639732        -30.2752                0               0
                      0.00730191        -80.7736                0               0                1         57.4201                0               0
                       0.0639703         -30.272                0               0        0.0718094         -34.891                0               0
                               1         57.4206                0               0        0.0072573        -80.4965                0               0
76.35                  0.0619957        -37.8729                0               0        0.0675442         -32.336                0               0
                      0.00589048        -96.8692                0               0                1         55.0471                0               0
                       0.0675414        -32.3332                0               0         0.062004        -37.9653                0               0
                               1         55.0476                0               0       0.00584024        -96.6511                0               0
76.395                 0.0520033        -41.0613                0               0         0.071083        -34.5236                0               0
                      0.00488413        -119.944                0               0                1         52.6854                0               0
                       0.0710803         -34.521                0               0        0.0520116        -41.1798                0               0
                               1         52.6859                0               0       0.00483116        -119.918                0               0
76.44                  0.0418713        -44.4393                0               0        0.0745602        -36.8363                0               0
                      0.00463715        -149.238                0               0                1         50.3351                0               0
                       0.0745577         -36.834                0               0        0.0418785        -44.5958                0               0
                               1         50.3357                0               0        0.0045912        -149.512                0               0
76.485                 0.0316527        -48.1482                0               0        0.0779479        -39.2703                0               0
                      0.00530863        -176.877                0               0                1         47.9967                0               0
                       0.0779457        -39.2684                0               0        0.0316585        -48.3658                0               0
                               1         47.9973                0               0        0.0052787        -177.297                0               0
76.53                  0.0214086        -52.6175                0               0        0.0812201        -41.8198                0               0
                      0.00664796          162.64                0               0                1         45.6708                0               0
                       0.0812182        -41.8181                0               0        0.0214142        -52.9521                0               0
                               1         45.6715                0               0       0.00663342         162.255                0               0
76.575                  0.011227        -59.8613                0               0        0.0843531        -44.4769                0               0
                      0.00834078         148.122                0               0                1          43.359                0               0
                       0.0843516        -44.4756                0               0        0.0112387         -60.516                0               0
                               1         43.3597                0               0       0.00833755         147.814                0               0
76.62                 0.00198414        -116.254                0               0        0.0873259        -47.2323                0               0
                       0.0101986         137.234                0               0                1         41.0628                0               0
                       0.0873247        -47.2312                0               0       0.00209534        -118.232                0               0
                               1         41.0637                0               0        0.0102035         136.993                0               0
76.665                0.00929108         134.236                0               0        0.0901203         -50.075                0               0
                       0.0121208         128.481                0               0                1         38.7844                0               0
                       0.0901194        -50.0742                0               0       0.00933359         135.014                0               0
                               1         38.7853                0               0        0.0121316         128.293                0               0
76.71                  0.0190605         125.741                0               0         0.092721        -52.9933                0               0
                       0.0140484         121.043                0               0         0.999599         36.5259                0               0
                       0.0927205        -52.9927                0               0        0.0190928         126.133                0               0
                          0.9996         36.5268                0               0        0.0140636         120.894                0               0
76.755                 0.0286587         121.131                0               0        0.0951165        -55.9747                0               0
                       0.0159425         114.466                0               0         0.994925         34.2896                0               0
                       0.0951162        -55.9743                0               0        0.0286888         121.394                0               0
                        0.994926         34.2906                0               0        0.0159612         114.347                0               0
76.8                   0.0379994         117.482                0               0        0.0972984        -59.0064                0               0
                       0.0177753         108.492                0               0         0.989635         32.0778                0               0
                       0.0972984        -59.0062                0               0        0.0380285          117.68                0               0
                        0.989636         32.0789                0               0        0.0177966         108.397                0               0
76.845                 0.0470398         114.245                0               0        0.0992621        -62.0755                0               0
                       0.0195261         102.966                0               0         0.983784         29.8929                0               0
                       0.0992623        -62.0754                0               0        0.0470676         114.405                0               0
                        0.983786         29.8939                0               0        0.0195494          102.89                0               0
76.89                  0.0557498         111.247                0               0         0.101006        -65.1696                0               0
                       0.0211795         97.7949                0               0         0.977433         27.7367                0               0
                        0.101006        -65.1696                0               0         0.055776         111.382                0               0
                        0.977435         27.7378                0               0        0.0212043         97.7344                0               0
76.935                 0.0641082         108.416                0               0         0.102532        -68.2766                0               0
                       0.0227249         92.9173                0               0         0.970643         25.6113                0               0
                        0.102533        -68.2767                0               0        0.0641324         108.534                0               0
                        0.970645         25.6124                0               0        0.0227507         92.8699                0               0
76.98                  0.0721013         105.718                0               0         0.103846        -71.3854                0               0
                       0.0241553         88.2937                0               0         0.963479         23.5183                0               0
                        0.103846        -71.3856                0               0         0.072123         105.823                0               0
                        0.963481         23.5193                0               0        0.0241817         88.2575                0               0
77.025                 0.0797219         103.134                0               0         0.104954        -74.4856                0               0
                       0.0254674         83.8964                0               0         0.956007         21.4589                0               0
                        0.104955        -74.4858                0               0        0.0797408          103.23                0               0
                        0.956009         21.4599                0               0        0.0254941           83.87                0               0
77.07                  0.0869685         100.654                0               0         0.105866        -77.5681                0               0
                       0.0266605         79.7054                0               0         0.948292         19.4342                0               0
                        0.105867        -77.5683                0               0        0.0869845         100.742                0               0
                        0.948294         19.4352                0               0        0.0266872         79.6877                0               0
77.115                 0.0938444         98.2701                0               0         0.106595        -80.6245                0               0
                       0.0277365         75.7052                0               0           0.9404         17.4449                0               0
                        0.106595        -80.6248                0               0        0.0938575          98.353                0               0
                        0.940402         17.4459                0               0        0.0277628         75.6952                0               0
77.16                   0.100357          95.977                0               0         0.107151         -83.648                0               0
                       0.0286989         71.8833                0               0         0.932393         15.4913                0               0
                        0.107152        -83.6483                0               0         0.100368         96.0557                0               0
                        0.932395         15.4922                0               0        0.0287248         71.8803                0               0
77.205                  0.106518         93.7701                0               0          0.10755        -86.6325                0               0