! TOUCHSTONE file generated by CST MICROWAVE STUDIO
! Date and time: Mon Jun 21 17:07:15 2021
! Project name: HIPS_d_sweep.cst
! Parameters = {a=0.735; b=0.393; d=23.0352; fmax=120; fmin=75; phi=0; theta=0}
! Header version: 2018
! Port assignment regex: !\s*Touchstone port\s*([0-9]+)\s*=\s*(CST MWS port|CST DS port)\s*([0-9]+|Zmin|Zmax)\s*\(\"(.*)\"\)(\s*mode\s*([0-9]+))?.*
! Touchstone port assignment:
! Touchstone port 1 = CST MWS port Zmin ("") mode 1
! Touchstone port 2 = CST MWS port Zmin ("") mode 2
! Touchstone port 3 = CST MWS port Zmax ("") mode 1
! Touchstone port 4 = CST MWS port Zmax ("") mode 2
! S-Parameters are not renormalized. Unphysical impedance of 0 will be written to the file.
# GHz S MA R 0
75                       0.24375         54.8901                0               0        0.0630386         60.2941                0               0
                       0.0299165         86.4118                0               0         0.967325        -35.5291                0               0
                       0.0630385         60.2941                0               0         0.243748         54.8873                0               0
                        0.967324        -35.5281                0               0        0.0299031         86.3688                0               0
75.045                    0.2437         54.2773                0               0         0.066669         59.3599                0               0
                        0.030468         87.1712                0               0         0.967085         -36.196                0               0
                       0.0666691         59.3596                0               0         0.243698          54.275                0               0
                        0.967086         -36.195                0               0        0.0304544         87.1305                0               0
75.09                   0.243745         53.5632                0               0         0.069982         58.3952                0               0
                        0.031066         87.5819                0               0         0.966823        -36.9431                0               0
                       0.0699823         58.3948                0               0         0.243743         53.5614                0               0
                        0.966824         -36.942                0               0        0.0310525         87.5439                0               0
75.135                   0.24387         52.7552                0               0        0.0729612         57.3986                0               0
                       0.0317003         87.6518                0               0         0.966549        -37.7715                0               0
                       0.0729615         57.3982                0               0         0.243868          52.754                0               0
                        0.966551        -37.7704                0               0        0.0316869         87.6169                0               0
75.18                   0.244059         51.8592                0               0         0.075596         56.3679                0               0
                       0.0323616         87.3939                0               0         0.966275        -38.6818                0               0
                       0.0755961         56.3676                0               0         0.244057         51.8587                0               0
                        0.966275        -38.6807                0               0        0.0323486         87.3623                0               0
75.225                  0.244293         50.8795                0               0        0.0778815         55.3005                0               0
                       0.0330419         86.8245                0               0         0.966008         -39.674                0               0
                       0.0778816         55.3004                0               0         0.244291         50.8798                0               0
                        0.966008         -39.673                0               0        0.0330295         86.7965                0               0
75.27                   0.244553         49.8196                0               0        0.0798186         54.1938                0               0
                        0.033734         85.9624                0               0         0.965757        -40.7475                0               0
                       0.0798186         54.1937                0               0         0.244551         49.8207                0               0
                        0.965757        -40.7465                0               0        0.0337225         85.9382                0               0
75.315                   0.24482         48.6819                0               0        0.0814127          53.045                0               0
                        0.034432         84.8275                0               0          0.96553        -41.9012                0               0
                       0.0814127         53.0449                0               0         0.244818          48.684                0               0
                         0.96553        -41.9002                0               0        0.0344216         84.8074                0               0
75.36                   0.245073         47.4685                0               0        0.0826736         51.8518                0               0
                       0.0351306         83.4406                0               0         0.965333        -43.1332                0               0
                       0.0826735         51.8518                0               0          0.24507         47.4717                0               0
                        0.965332        -43.1322                0               0        0.0351214         83.4248                0               0
75.405                   0.24529         46.1809                0               0        0.0836143         50.6122                0               0
                       0.0358248         81.8224                0               0         0.965172        -44.4415                0               0
                       0.0836142         50.6122                0               0         0.245287         46.1852                0               0
                        0.965171        -44.4405                0               0        0.0358172         81.8111                0               0
75.45                    0.24545         44.8206                0               0        0.0842504         49.3247                0               0
                       0.0365105         79.9931                0               0         0.965051        -45.8233                0               0
                       0.0842504         49.3246                0               0         0.245447         44.8261                0               0
                         0.96505        -45.8223                0               0        0.0365045         79.9866                0               0
75.495                  0.245531         43.3888                0               0        0.0845993         47.9879                0               0
                       0.0371836         77.9722                0               0         0.964974        -47.2757                0               0
                       0.0845992         47.9879                0               0         0.245527         43.3956                0               0
                        0.964974        -47.2747                0               0        0.0371794         77.9709                0               0
75.54                   0.245509         41.8868                0               0        0.0846793         46.6012                0               0
                         0.03784         75.7787                0               0         0.964948        -48.7953                0               0
                       0.0846793         46.6012                0               0         0.245505         41.8951                0               0
                        0.964947        -48.7943                0               0        0.0378376         75.7827                0               0
75.585                  0.245362         40.3163                0               0        0.0845094         45.1644                0               0
                       0.0384758         73.4301                0               0         0.964974        -50.3787                0               0
                       0.0845094         45.1643                0               0         0.245358          40.326                0               0
                        0.964973        -50.3776                0               0        0.0384753         73.4398                0               0
75.63                   0.245066          38.679                0               0        0.0841084         43.6774                0               0
                       0.0390868         70.9432                0               0         0.965058         -52.022                0               0
                       0.0841082         43.6774                0               0         0.245061         38.6903                0               0
                        0.965056        -52.0209                0               0        0.0390882          70.959                0               0
75.675                  0.244598         36.9771                0               0        0.0834944         42.1407                0               0
                        0.039669         68.3337                0               0         0.965203        -53.7213                0               0
                       0.0834941         42.1409                0               0         0.244593         36.9901                0               0
                          0.9652        -53.7203                0               0        0.0396722         68.3558                0               0
75.72                   0.243936         35.2132                0               0        0.0826849         40.5553                0               0
                       0.0402178         65.6162                0               0         0.965413         -55.473                0               0
                       0.0826844         40.5556                0               0          0.24393          35.228                0               0
                        0.965409         -55.472                0               0        0.0402229          65.645                0               0
75.765                  0.243056         33.3904                0               0        0.0816961         38.9223                0               0
                       0.0407288         62.8043                0               0         0.965692         -57.273                0               0
                       0.0816953         38.9228                0               0          0.24305         33.4071                0               0
                        0.965685        -57.2721                0               0        0.0407356         62.8403                0               0
75.81                   0.241937         31.5125                0               0        0.0805428         37.2431                0               0
                       0.0411974         59.9108                0               0         0.966044        -59.1177                0               0
                       0.0805417         37.2438                0               0         0.241931         31.5312                0               0
                        0.966034        -59.1168                0               0        0.0412058         59.9543                0               0
75.855                  0.240561         29.5837                0               0        0.0792388         35.5194                0               0
                       0.0416188         56.9475                0               0         0.966473        -61.0032                0               0
                       0.0792372         35.5205                0               0         0.240554         29.6044                0               0
                         0.96646        -61.0025                0               0        0.0416288         56.9989                0               0
75.9                    0.238909         27.6088                0               0         0.077796         33.7534                0               0
                       0.0419883         53.9256                0               0         0.966981        -62.9263                0               0
                        0.077794         33.7548                0               0         0.238901         27.6317                0               0
                        0.966964        -62.9256                0               0        0.0419996         53.9852                0               0
75.945                  0.236966         25.5931                0               0        0.0762254         31.9473                0               0
                       0.0423011         50.8555                0               0         0.967573        -64.8834                0               0
                       0.0762228         31.9491                0               0         0.236958         25.6183                0               0
                        0.967552        -64.8828                0               0        0.0423138         50.9238                0               0
75.99                   0.234721         23.5423                0               0        0.0745364         30.1036                0               0
                       0.0425528          47.747                0               0         0.968249        -66.8714                0               0
                       0.0745332          30.106                0               0         0.234712         23.5699                0               0
                        0.968224         -66.871                0               0        0.0425667         47.8243                0               0
76.035                  0.232164         21.4627                0               0        0.0727373         28.2254                0               0
                        0.042739         44.6094                0               0         0.969012        -68.8874                0               0
                       0.0727335         28.2282                0               0         0.232155         21.4928                0               0
                        0.968982        -68.8871                0               0         0.042754         44.6962                0               0
76.08                   0.229292         19.3605                0               0        0.0708355         26.3158                0               0
                       0.0428558         41.4515                0               0         0.969861        -70.9285                0               0
                       0.0708311          26.319                0               0         0.229282         19.3933                0               0
                        0.969827        -70.9282                0               0        0.0428717         41.5481                0               0
76.125                  0.226102         17.2421                0               0        0.0688374         24.3782                0               0
                       0.0428995         38.2819                0               0         0.970794         -72.992                0               0
                       0.0688325         24.3818                0               0         0.226092         17.2777                0               0
                        0.970757        -72.9918                0               0        0.0429163         38.3888                0               0
76.17                   0.222598         15.1139                0               0        0.0667491         22.4165                0               0
                       0.0428671         35.1088                0               0         0.971808        -75.0753                0               0
                       0.0667437         22.4205                0               0         0.222588         15.1524                0               0
                        0.971769        -75.0752                0               0        0.0428848         35.2262                0               0
76.215                  0.218786         12.9818                0               0        0.0645764         20.4349                0               0
                        0.042756         31.9399                0               0         0.972897        -77.1758                0               0
                       0.0645706         20.4393                0               0         0.218775         13.0235                0               0
                        0.972857        -77.1757                0               0        0.0427745         32.0684                0               0
76.26                   0.214675         10.8515                0               0         0.062325         18.4381                0               0
                       0.0425643         28.7832                0               0         0.974052        -79.2909                0               0
                        0.062319         18.4426                0               0         0.214663         10.8964                0               0
                        0.974012        -79.2907                0               0        0.0425835         28.9231                0               0
76.305                  0.210277         8.72768                0               0        0.0600015         16.4309                0               0
                       0.0422909         25.6461                0               0          0.97526        -81.4178                0               0
                       0.0599954         16.4355                0               0         0.210264          8.7761                0               0
                        0.975222        -81.4176                0               0        0.0423108         25.7979                0               0
76.35                   0.205603         6.61459                0               0        0.0576133         14.4191                0               0
                       0.0419351         22.5362                0               0         0.976503        -83.5537                0               0
                       0.0576074         14.4235                0               0          0.20559         6.66666                0               0
                        0.976468        -83.5534                0               0        0.0419556         22.7002                0               0
76.395                  0.200668         4.51541                0               0        0.0551697         12.4087                0               0
                       0.0414971         19.4609                0               0         0.977757        -85.6954                0               0
                       0.0551642         12.4128                0               0         0.200655         4.57134                0               0
                        0.977727         -85.695                0               0        0.0415182         19.6376                0               0
76.44                   0.195483         2.43255                0               0        0.0526821         10.4071                0               0
                       0.0409778         16.4276                0               0         0.978992        -87.8395                0               0
                       0.0526773         10.4106                0               0         0.195469         2.49257                0               0
                        0.978968         -87.839                0               0        0.0409994         16.6176                0               0
76.485                  0.190057         0.36767                0               0         0.050165          8.4229                0               0
                       0.0403787         13.4441                0               0         0.980168        -89.9825                0               0
                       0.0501612         8.42572                0               0         0.190043        0.432032                0               0
                        0.980151        -89.9818                0               0        0.0404008         13.6479                0               0
76.53                   0.184399        -1.67796                0               0        0.0476366         6.46776                0               0
                        0.039702         10.5181                0               0         0.981235        -92.1204                0               0
                        0.047634         6.46978                0               0         0.184385        -1.60897                0               0
                        0.981225        -92.1194                0               0        0.0397246         10.7364                0               0
76.575                   0.17851        -3.70302                0               0        0.0451186         4.55764                0               0
                       0.0389508         7.65779                0               0         0.982132        -94.2492                0               0
                       0.0451175         4.55888                0               0         0.178496        -3.62909                0               0
                        0.982129         -94.248                0               0        0.0389737         7.89115                0               0
76.62                   0.172392        -5.70545                0               0        0.0426368         2.71566                0               0
                       0.0381283         4.87163                0               0         0.982788        -96.3651                0               0
                       0.0426374         2.71629                0               0         0.172378        -5.62622                0               0
                        0.982791        -96.3636                0               0        0.0381517         5.12097                0               0
76.665                  0.166041        -7.68154                0               0        0.0402195        0.975529                0               0
                       0.0372388         2.16884                0               0         0.983121        -98.4643                0               0
                       0.0402217         0.97587                0               0         0.166027         -7.5966                0               0
                        0.983129        -98.4625                0               0        0.0372626          2.4351                0               0
76.71                   0.159454        -9.62487                0               0         0.037896       -0.614798                0               0
                       0.0362869       -0.440616                0               0         0.983045        -100.544                0               0
                       0.0378996       -0.614301                0               0          0.15944        -9.53374                0               0
                        0.983055        -100.542                0               0        0.0363113       -0.156385                0               0
76.755                  0.152628        -11.5252                0               0        0.0356938        -1.99064                0               0
                       0.0352781        -2.94581                0               0         0.982472        -102.601                0               0
                       0.0356984        -1.98953                0               0         0.152616        -11.4273                0               0
                        0.982484        -102.598                0               0        0.0353031        -2.64239                0               0
76.8                    0.145569        -13.3675                0               0        0.0336366         -3.0712                0               0
                       0.0342182        -5.33462                0               0         0.981322        -104.634                0               0
                       0.0336416        -3.06919                0               0         0.145558        -13.2622                0               0
                        0.981333        -104.631                0               0        0.0342441        -5.01064                0               0
76.845                   0.13829         -15.131                0               0        0.0317423         -3.7652                0               0
                        0.033114        -7.59348                0               0         0.979528        -106.642                0               0
                       0.0317471        -3.76224                0               0         0.138281        -15.0175                0               0
                        0.979538        -106.639                0               0         0.033141        -7.24743                0               0
76.89                   0.130816        -16.7892                0               0         0.030025        -3.98168                0               0
                       0.0319729        -9.70726                0               0         0.977046        -108.625                0               0
                        0.030029        -3.97805                0               0         0.130809        -16.6667                0               0
                        0.977053        -108.623                0               0        0.0320016        -9.33749                0               0
76.935                  0.123188        -18.3099                0               0        0.0284973        -3.64466                0               0
                       0.0308034        -11.6591                0               0         0.973856        -110.583                0               0
                          0.0285        -3.64085                0               0         0.123184        -18.1773                0               0
                        0.973859        -110.581                0               0        0.0308341        -11.2639                0               0
76.98                   0.115459        -19.6562                0               0        0.0271739        -2.70872                0               0
                       0.0296147        -13.4304                0               0         0.969967        -112.518                0               0
                       0.0271752        -2.70523                0               0          0.11546        -19.5123                0               0
                        0.969967        -112.516                0               0        0.0296483        -13.0079                0               0
77.025                  0.107697        -20.7874                0               0        0.0260736        -1.17283                0               0
                       0.0284175        -15.0011                0               0         0.965414        -114.429                0               0
                       0.0260735        -1.16998                0               0         0.107704         -20.631                0               0
                        0.965411        -114.427                0               0        0.0284547        -14.5497                0               0
77.07                  0.0999731        -21.6601                0               0        0.0252182        0.909986                0               0
                       0.0272233        -16.3501                0               0         0.960256        -116.316                0               0
                       0.0252167        0.912176                0               0        0.0999865        -21.4896                0               0
                         0.96025        -116.315                0               0        0.0272652        -15.8682                0               0
77.115                  0.092362        -22.2283                0               0         0.024628         3.43004                0               0
                       0.0260449        -17.4562                0               0         0.954568         -118.18                0               0
                       0.0246256         3.43182                0               0        0.0923838        -22.0421                0               0
                         0.95456        -118.179                0               0        0.0260925        -16.9426                0               0
77.16                  0.0849348        -22.4434                0               0        0.0243167         6.22899                0               0
                       0.0248962        -18.2999                0               0         0.948438         -120.02                0               0
                       0.0243134         6.23078                0               0        0.0849668        -22.2398                0               0
                        0.948429         -120.02                0               0        0.0249508         -17.754                0               0
77.205                 0.0777565         -22.252                0               0        0.0242854         9.11996                0               0