! TOUCHSTONE file generated by CST MICROWAVE STUDIO
! Date and time: Mon Jun 21 17:06:20 2021
! Project name: HIPS_d_sweep.cst
! Parameters = {a=0.735; b=0.393; d=16.3518; fmax=120; fmin=75; phi=0; theta=0}
! Header version: 2018
! Port assignment regex: !\s*Touchstone port\s*([0-9]+)\s*=\s*(CST MWS port|CST DS port)\s*([0-9]+|Zmin|Zmax)\s*\(\"(.*)\"\)(\s*mode\s*([0-9]+))?.*
! Touchstone port assignment:
! Touchstone port 1 = CST MWS port Zmin ("") mode 1
! Touchstone port 2 = CST MWS port Zmin ("") mode 2
! Touchstone port 3 = CST MWS port Zmax ("") mode 1
! Touchstone port 4 = CST MWS port Zmax ("") mode 2
! S-Parameters are not renormalized. Unphysical impedance of 0 will be written to the file.
# GHz S MA R 0
75                     0.0750422         63.6133                0               0          0.49114         113.586                0               0
                        0.105467        -80.7185                0               0          0.86141         24.4559                0               0
                         0.49114         113.586                0               0        0.0751778         63.6153                0               0
                         0.86141          24.457                0               0         0.105377        -80.6593                0               0
75.045                 0.0758558         63.6107                0               0         0.493299         113.077                0               0
                        0.105428        -81.6416                0               0         0.859965         23.9562                0               0
                          0.4933         113.077                0               0        0.0759912         63.6124                0               0
                        0.859966         23.9573                0               0         0.105337        -81.5824                0               0
75.09                  0.0767313         63.7058                0               0         0.495245         112.496                0               0
                        0.105304        -82.7157                0               0         0.858764         23.3937                0               0
                        0.495246         112.496                0               0        0.0768668         63.7069                0               0
                        0.858765         23.3949                0               0         0.105212        -82.6565                0               0
75.135                 0.0776753         63.8909                0               0         0.496957         111.846                0               0
                        0.105108         -83.937                0               0         0.857773         22.7687                0               0
                        0.496958         111.846                0               0        0.0778111         63.8912                0               0
                        0.857775         22.7697                0               0         0.105015        -83.8777                0               0
75.18                  0.0786958         64.1577                0               0          0.49842         111.129                0               0
                         0.10485        -85.3014                0               0         0.856965         22.0813                0               0
                        0.498421         111.129                0               0         0.078832         64.1569                0               0
                        0.856966         22.0824                0               0         0.104755         -85.242                0               0
75.225                 0.0798016         64.4968                0               0         0.499623         110.347                0               0
                        0.104537        -86.8051                0               0         0.856314         21.3323                0               0
                        0.499623         110.347                0               0        0.0799382         64.4946                0               0
                        0.856316         21.3334                0               0         0.104441        -86.7454                0               0
75.27                  0.0810022          64.898                0               0         0.500558         109.504                0               0
                        0.104177        -88.4442                0               0         0.855801         20.5228                0               0
                        0.500558         109.503                0               0        0.0811392         64.8943                0               0
                        0.855803         20.5238                0               0         0.104079        -88.3844                0               0
75.315                 0.0823072         65.3504                0               0         0.501222           108.6                0               0
                        0.103773        -90.2152                0               0          0.85541         19.6539                0               0
                        0.501222           108.6                0               0        0.0824445          65.345                0               0
                        0.855411         19.6549                0               0         0.103673        -90.1553                0               0
75.36                   0.083726         65.8424                0               0         0.501617          107.64                0               0
                         0.10333        -92.1149                0               0         0.855127          18.727                0               0
                        0.501617          107.64                0               0        0.0838636         65.8352                0               0
                        0.855129          18.728                0               0         0.103228        -92.0548                0               0
75.405                 0.0852676         66.3618                0               0         0.501744         106.625                0               0
                         0.10285        -94.1401                0               0         0.854944         17.7439                0               0
                        0.501745         106.625                0               0        0.0854054         66.3527                0               0
                        0.854946         17.7449                0               0         0.102745        -94.0799                0               0
75.45                  0.0869399         66.8962                0               0         0.501612         105.556                0               0
                        0.102335        -96.2882                0               0         0.854854         16.7062                0               0
                        0.501613         105.556                0               0        0.0870777         66.8852                0               0
                        0.854855         16.7072                0               0         0.102228        -96.2278                0               0
75.495                 0.0887495         67.4334                0               0         0.501229         104.437                0               0
                        0.101788        -98.5563                0               0         0.854853          15.616                0               0
                        0.501229         104.437                0               0        0.0888872         67.4204                0               0
                        0.854854          15.617                0               0         0.101678        -98.4959                0               0
75.54                  0.0907017          67.961                0               0         0.500606          103.27                0               0
                        0.101211        -100.942                0               0         0.854939         14.4753                0               0
                        0.500606          103.27                0               0        0.0908391         67.9461                0               0
                        0.854941         14.4763                0               0         0.101097        -100.882                0               0
75.585                 0.0927997         68.4676                0               0         0.499755         102.056                0               0
                        0.100605        -103.444                0               0         0.855113         13.2865                0               0
                        0.499756         102.056                0               0        0.0929368         68.4508                0               0
                        0.855115         13.2875                0               0         0.100488        -103.383                0               0
75.63                   0.095045         68.9421                0               0         0.498691         100.798                0               0
                       0.0999735        -106.058                0               0         0.855374         12.0519                0               0
                        0.498692         100.798                0               0        0.0951817         68.9236                0               0
                        0.855376         12.0529                0               0        0.0998526        -105.998                0               0
75.675                 0.0974372         69.3747                0               0         0.497431         99.4984                0               0
                       0.0993199        -108.783                0               0         0.855724          10.774                0               0
                        0.497432         99.4984                0               0        0.0975732         69.3546                0               0
                        0.855726          10.775                0               0        0.0991953        -108.724                0               0
75.72                  0.0999736         69.7568                0               0         0.495989         98.1598                0               0
                       0.0986484        -111.617                0               0         0.856164          9.4555                0               0
                         0.49599         98.1598                0               0         0.100109         69.7351                0               0
                        0.856166         9.45648                0               0        0.0985198        -111.557                0               0
75.765                   0.10265         70.0808                0               0         0.494382         96.7848                0               0
                        0.097964        -114.556                0               0         0.856695         8.09907                0               0
                        0.494384         96.7848                0               0         0.102785         70.0577                0               0
                        0.856697         8.10005                0               0        0.0978314        -114.497                0               0
75.81                    0.10546         70.3406                0               0         0.492628         95.3763                0               0
                       0.0972727        -117.596                0               0         0.857316         6.70759                0               0
                         0.49263         95.3763                0               0         0.105594         70.3162                0               0
                        0.857318         6.70856                0               0        0.0971361        -117.537                0               0
75.855                  0.108395         70.5315                0               0         0.490742         93.9373                0               0
                       0.0965814        -120.734                0               0         0.858025         5.28397                0               0
                        0.490744         93.9373                0               0         0.108528          70.506                0               0
                        0.858027         5.28493                0               0        0.0964406        -120.676                0               0
75.9                    0.111446           70.65                0               0         0.488741          92.471                0               0
                       0.0958976        -123.964                0               0         0.858818         3.83122                0               0
                        0.488742          92.471                0               0         0.111578         70.6234                0               0
                         0.85882         3.83218                0               0        0.0957526        -123.907                0               0
75.945                  0.114601         70.6938                0               0         0.486638         90.9808                0               0
                       0.0952294         -127.28                0               0         0.859689         2.35241                0               0
                         0.48664         90.9808                0               0         0.114733         70.6662                0               0
                        0.859691         2.35336                0               0          0.09508        -127.224                0               0
75.99                    0.11785         70.6616                0               0         0.484448         89.4701                0               0
                       0.0945846        -130.675                0               0         0.860629        0.850617                0               0
                        0.484449         89.4702                0               0         0.117981         70.6333                0               0
                        0.860631        0.851564                0               0        0.0944308         -130.62                0               0
76.035                  0.121177         70.5533                0               0         0.482183         87.9427                0               0
                       0.0939708         -134.14                0               0         0.861627       -0.671045                0               0
                        0.482184         87.9427                0               0         0.121307         70.5242                0               0
                        0.861629         -0.6701                0               0        0.0938125        -134.087                0               0
76.08                   0.124569         70.3694                0               0         0.479853         86.4022                0               0
                       0.0933948        -137.666                0               0         0.862669        -2.20948                0               0
                        0.479855         86.4022                0               0         0.124698         70.3398                0               0
                        0.862671        -2.20854                0               0        0.0932319        -137.614                0               0
76.125                  0.128011         70.1112                0               0         0.477469         84.8524                0               0
                       0.0928618        -141.241                0               0         0.863736        -3.76164                0               0
                         0.47747         84.8524                0               0          0.12814         70.0812                0               0
                        0.863738         -3.7607                0               0        0.0926942        -141.191                0               0
76.17                   0.131488         69.7806                0               0         0.475037         83.2972                0               0
                       0.0923753        -144.855                0               0          0.86481        -5.32452                0               0
                        0.475038         83.2972                0               0         0.131615         69.7502                0               0
                        0.864813        -5.32358                0               0         0.092203        -144.807                0               0
76.215                  0.134981         69.3799                0               0         0.472564         81.7402                0               0
                       0.0919369        -148.495                0               0         0.865868        -6.89523                0               0
                        0.472565         81.7402                0               0         0.135107         69.3492                0               0
                        0.865871        -6.89428                0               0        0.0917599        -148.449                0               0
76.26                   0.138476         68.9117                0               0         0.470054         80.1853                0               0
                        0.091546         -152.15                0               0         0.866885        -8.47098                0               0
                        0.470055         80.1853                0               0         0.138601         68.8809                0               0
                        0.866888        -8.47002                0               0        0.0913643        -152.107                0               0
76.305                  0.141955         68.3789                0               0         0.467512         78.6361                0               0
                       0.0911999        -155.809                0               0         0.867835        -10.0491                0               0
                        0.467513          78.636                0               0         0.142078         68.3481                0               0
                        0.867837        -10.0481                0               0        0.0910136        -155.768                0               0
76.35                     0.1454         67.7848                0               0         0.464939         77.0959                0               0
                        0.090894         -159.46                0               0         0.868689        -11.6271                0               0
                        0.464939         77.0959                0               0         0.145523          67.754                0               0
                        0.868691        -11.6261                0               0        0.0907033        -159.422                0               0
76.395                  0.148795         67.1326                0               0         0.462337         75.5681                0               0
                       0.0906224        -163.095                0               0         0.869419        -13.2026                0               0
                        0.462337         75.5681                0               0         0.148916         67.1019                0               0
                        0.869422        -13.2016                0               0        0.0904275         -163.06                0               0
76.44                   0.152122         66.4257                0               0         0.459707         74.0557                0               0
                       0.0903782        -166.705                0               0         0.869997        -14.7735                0               0
                        0.459707         74.0557                0               0         0.152242         66.3953                0               0
                            0.87        -14.7725                0               0        0.0901793        -166.673                0               0
76.485                  0.155365         65.6678                0               0          0.45705         72.5615                0               0
                       0.0901538        -170.283                0               0         0.870395        -16.3378                0               0
                         0.45705         72.5615                0               0         0.155484         65.6376                0               0
                        0.870398        -16.3368                0               0        0.0899512        -170.255                0               0
76.53                   0.158507         64.8624                0               0         0.454367          71.088                0               0
                       0.0899417        -173.825                0               0         0.870587        -17.8937                0               0
                        0.454367         71.0881                0               0         0.158625         64.8326                0               0
                        0.870589        -17.8927                0               0        0.0897357        -173.801                0               0
76.575                  0.161533         64.0134                0               0         0.451659         69.6375                0               0
                       0.0897348        -177.327                0               0         0.870547        -19.4396                0               0
                        0.451659         69.6376                0               0          0.16165          63.984                0               0
                        0.870549        -19.4385                0               0        0.0895257        -177.306                0               0
76.62                   0.164429         63.1245                0               0         0.448927         68.2118                0               0
                       0.0895264         179.215                0               0         0.870255        -20.9739                0               0
                        0.448928          68.212                0               0         0.164545         63.0956                0               0
                        0.870257        -20.9728                0               0        0.0893145         179.232                0               0
76.665                  0.167182         62.1998                0               0         0.446174         66.8127                0               0
                       0.0893108         175.802                0               0         0.869692        -22.4955                0               0
                        0.446175         66.8128                0               0         0.167297         62.1714                0               0
                        0.869694        -22.4944                0               0        0.0890964         175.815                0               0
76.71                   0.169779         61.2433                0               0         0.443403         65.4414                0               0
                        0.089083         172.437                0               0         0.868843        -24.0031                0               0
                        0.443404         65.4415                0               0         0.169893         61.2154                0               0
                        0.868845         -24.002                0               0        0.0888664         172.446                0               0
76.755                  0.172211          60.259                0               0         0.440618         64.0989                0               0
                       0.0888393         169.119                0               0         0.867699        -25.4958                0               0
                        0.440618         64.0991                0               0         0.172324         60.2316                0               0
                        0.867701        -25.4946                0               0        0.0886208         169.124                0               0
76.8                     0.17447         59.2513                0               0         0.437823          62.786                0               0
                       0.0885766          165.85                0               0         0.866254        -26.9726                0               0
                        0.437823         62.7862                0               0         0.174581         59.2243                0               0
                        0.866255        -26.9714                0               0        0.0883565         165.851                0               0
76.845                  0.176548         58.2242                0               0         0.435023          61.503                0               0
                       0.0882929          162.63                0               0         0.864506        -28.4327                0               0
                        0.435024         61.5032                0               0         0.176659         58.1977                0               0
                        0.864507        -28.4316                0               0        0.0880713         162.628                0               0
76.89                   0.178442         57.1821                0               0         0.432227         60.2501                0               0
                       0.0879868          159.46                0               0         0.862459        -29.8755                0               0
                        0.432227         60.2503                0               0         0.178552         57.1561                0               0
                         0.86246        -29.8744                0               0        0.0877641         159.454                0               0
76.935                   0.18015         56.1291                0               0          0.42944         59.0273                0               0
                        0.087658         156.341                0               0         0.860121        -31.3004                0               0
                         0.42944         59.0275                0               0         0.180259         56.1035                0               0
                        0.860122        -31.2992                0               0        0.0874344         156.332                0               0
76.98                   0.181671         55.0694                0               0          0.42667         57.8341                0               0
                       0.0873067         153.274                0               0         0.857505        -32.7067                0               0
                        0.426671         57.8343                0               0         0.181779         55.0443                0               0
                        0.857506        -32.7056                0               0        0.0870824         153.261                0               0
77.025                  0.183007         54.0071                0               0         0.423928         56.6699                0               0
                       0.0869338          150.26                0               0         0.854627        -34.0942                0               0
                        0.423928         56.6701                0               0         0.183115         53.9823                0               0
                        0.854628        -34.0931                0               0        0.0867091         150.244                0               0
77.07                   0.184162         52.9458                0               0         0.421221          55.534                0               0
                       0.0865412           147.3                0               0         0.851508        -35.4624                0               0
                        0.421221         55.5341                0               0         0.184269         52.9215                0               0
                        0.851509        -35.4613                0               0        0.0863163         147.281                0               0
77.115                  0.185141         51.8894                0               0         0.418558         54.4253                0               0
                       0.0861312         144.398                0               0         0.848171        -36.8111                0               0
                        0.418559         54.4254                0               0         0.185247         51.8654                0               0
                        0.848172        -36.8099                0               0        0.0859063         144.376                0               0
77.16                   0.185951         50.8411                0               0          0.41595         53.3426                0               0
                       0.0857071         141.553                0               0         0.844643          -38.14                0               0
                        0.415951         53.3427                0               0         0.186057         50.8174                0               0
                        0.844643        -38.1389                0               0        0.0854825         141.528                0               0
77.205                  0.186601         49.8039                0               0         0.413405         52.2846                0               0