! TOUCHSTONE file generated by CST MICROWAVE STUDIO
! Date and time: Mon Jun 21 17:07:21 2021
! Project name: HIPS_d_sweep.cst
! Parameters = {a=0.735; b=0.393; d=23.5879; fmax=120; fmin=75; phi=0; theta=0}
! Header version: 2018
! Port assignment regex: !\s*Touchstone port\s*([0-9]+)\s*=\s*(CST MWS port|CST DS port)\s*([0-9]+|Zmin|Zmax)\s*\(\"(.*)\"\)(\s*mode\s*([0-9]+))?.*
! Touchstone port assignment:
! Touchstone port 1 = CST MWS port Zmin ("") mode 1
! Touchstone port 2 = CST MWS port Zmin ("") mode 2
! Touchstone port 3 = CST MWS port Zmax ("") mode 1
! Touchstone port 4 = CST MWS port Zmax ("") mode 2
! S-Parameters are not renormalized. Unphysical impedance of 0 will be written to the file.
# GHz S MA R 0
75                      0.154523        -8.15257                0               0        0.0382185       -0.324043                0               0
                       0.0360028        0.886003                0               0         0.986596        -98.6719                0               0
                       0.0382185       -0.324368                0               0         0.154505        -8.15487                0               0
                        0.986593        -98.6734                0               0        0.0359869        0.732285                0               0
75.045                  0.152342        -8.76918                0               0        0.0419988        -1.71211                0               0
                        0.036675        0.886746                0               0         0.987449        -99.3593                0               0
                       0.0419988        -1.71289                0               0         0.152329        -8.77401                0               0
                        0.987446        -99.3608                0               0         0.036658        0.733728                0               0
75.09                   0.149788        -9.48379                0               0        0.0454866        -3.08678                0               0
                       0.0372417        0.637823                0               0         0.987982        -100.141                0               0
                       0.0454866        -3.08771                0               0         0.149777        -9.48916                0               0
                        0.987978        -100.143                0               0        0.0372237        0.485865                0               0
75.135                  0.146874         -10.295                0               0        0.0486542        -4.47515                0               0
                       0.0377041        0.154583                0               0         0.988291        -101.017                0               0
                       0.0486542        -4.47605                0               0         0.146864        -10.2994                0               0
                        0.988287        -101.019                0               0        0.0376851      0.00381632                0               0
75.18                    0.14361        -11.2009                0               0        0.0514788        -5.89524                0               0
                       0.0380621       -0.549043                0               0         0.988464        -101.986                0               0
                       0.0514788        -5.89601                0               0           0.1436        -11.2033                0               0
                        0.988461        -101.988                0               0        0.0380424       -0.698651                0               0
75.225                  0.140003        -12.1998                0               0        0.0539432        -7.35913                0               0
                        0.038315        -1.46033                0               0         0.988576        -103.048                0               0
                       0.0539432        -7.35973                0               0         0.139991        -12.1992                0               0
                        0.988573        -103.049                0               0        0.0382946        -1.60894                0               0
75.27                   0.136055        -13.2893                0               0        0.0560355        -8.87486                0               0
                       0.0384614        -2.56759                0               0         0.988689        -104.198                0               0
                       0.0560355        -8.87529                0               0         0.136042        -13.2854                0               0
                        0.988686          -104.2                0               0        0.0384406        -2.71543                0               0
75.315                  0.131768        -14.4674                0               0        0.0577487        -10.4477                0               0
                       0.0384992        -3.85996                0               0          0.98885        -105.436                0               0
                       0.0577487        -10.4479                0               0         0.131755        -14.4596                0               0
                        0.988848        -105.438                0               0        0.0384781        -4.00735                0               0
75.36                   0.127142        -15.7318                0               0        0.0590808        -12.0808                0               0
                       0.0384261        -5.32729                0               0         0.989097        -106.759                0               0
                       0.0590808        -12.0809                0               0         0.127129        -15.7199                0               0
                        0.989095         -106.76                0               0         0.038405        -5.47456                0               0
75.405                  0.122176        -17.0799                0               0        0.0600343         -13.776                0               0
                       0.0382395        -6.95997                0               0         0.989451        -108.162                0               0
                       0.0600343        -13.7761                0               0         0.122163        -17.0637                0               0
                        0.989449        -108.164                0               0        0.0382185         -7.1075                0               0
75.45                   0.116869        -18.5092                0               0        0.0606156        -15.5342                0               0
                        0.037937        -8.74885                0               0         0.989924        -109.644                0               0
                       0.0606155        -15.5342                0               0         0.116856        -18.4886                0               0
                        0.989922        -109.646                0               0        0.0379161        -8.89703                0               0
75.495                  0.111218        -20.0169                0               0        0.0608344        -17.3556                0               0
                        0.037516        -10.6851                0               0         0.990515        -111.201                0               0
                       0.0608343        -17.3556                0               0         0.111206        -19.9917                0               0
                        0.990514        -111.202                0               0        0.0374956        -10.8344                0               0
75.54                   0.105224        -21.5998                0               0        0.0607034        -19.2401                0               0
                       0.0369748        -12.7604                0               0         0.991215        -112.829                0               0
                       0.0607033        -19.2401                0               0         0.105213        -21.5698                0               0
                        0.991214        -112.831                0               0        0.0369549         -12.911                0               0
75.585                 0.0988864        -23.2545                0               0        0.0602376        -21.1873                0               0
                       0.0363119        -14.9663                0               0         0.992005        -114.526                0               0
                       0.0602375        -21.1874                0               0        0.0988768        -23.2191                0               0
                        0.992004        -114.527                0               0        0.0362927        -15.1188                0               0
75.63                  0.0922074        -24.9767                0               0        0.0594538        -23.1971                0               0
                       0.0355269        -17.2951                0               0         0.992859        -116.288                0               0
                       0.0594537        -23.1972                0               0        0.0921992        -24.9354                0               0
                        0.992858         -116.29                0               0        0.0355084        -17.4498                0               0
75.675                  0.085191         -26.762                0               0          0.05837        -25.2693                0               0
                         0.03462        -19.7392                0               0         0.993745        -118.112                0               0
                       0.0583699        -25.2696                0               0        0.0851843        -26.7137                0               0
                        0.993745        -118.114                0               0        0.0346023        -19.8966                0               0
75.72                  0.0778438        -28.6046                0               0        0.0570051        -27.4044                0               0
                       0.0335925        -22.2915                0               0         0.994628        -119.996                0               0
                       0.0570051        -27.4047                0               0        0.0778385        -28.5477                0               0
                        0.994628        -119.998                0               0        0.0335758        -22.4519                0               0
75.765                 0.0701754        -30.4978                0               0        0.0553786        -29.6031                0               0
                       0.0324467        -24.9454                0               0         0.995468        -121.937                0               0
                       0.0553785        -29.6035                0               0        0.0701713        -30.4297                0               0
                        0.995468        -121.939                0               0        0.0324311        -25.1093                0               0
75.81                  0.0621982        -32.4329                0               0        0.0535098        -31.8667                0               0
                       0.0311861         -27.695                0               0         0.996227        -123.932                0               0
                       0.0535097        -31.8671                0               0        0.0621952        -32.3495                0               0
                        0.996227        -123.934                0               0        0.0311716        -27.8629                0               0
75.855                 0.0539282        -34.3981                0               0        0.0514184        -34.1972                0               0
                       0.0298152        -30.5353                0               0         0.996868        -125.979                0               0
                       0.0514183        -34.1976                0               0        0.0539263        -34.2931                0               0
                        0.996868        -125.981                0               0        0.0298019        -30.7077                0               0
75.9                   0.0453845        -36.3759                0               0        0.0491237        -36.5973                0               0
                       0.0283394        -33.4623                0               0         0.997359        -128.075                0               0
                       0.0491236        -36.5977                0               0        0.0453838        -36.2387                0               0
                        0.997359        -128.077                0               0        0.0283274        -33.6399                0               0
75.945                 0.0365897        -38.3361                0               0        0.0466447        -39.0707                0               0
                       0.0267652        -36.4734                0               0         0.997675        -130.218                0               0
                       0.0466446        -39.0712                0               0        0.0365907        -38.1477                0               0
                        0.997676        -130.219                0               0        0.0267545        -36.6569                0               0
75.99                  0.0275697        -40.2149                0               0        0.0440003        -41.6224                0               0
                       0.0250996        -39.5678                0               0         0.997806        -132.405                0               0
                       0.0440001        -41.6227                0               0        0.0275732        -39.9369                0               0
                        0.997808        -132.407                0               0        0.0250904        -39.7581                0               0
76.035                 0.0183539        -41.8289                0               0        0.0412091        -44.2584                0               0
                       0.0233507        -42.7467                0               0         0.997757        -134.635                0               0
                       0.0412088        -44.2585                0               0        0.0183615         -41.364                0               0
                         0.99776        -134.637                0               0         0.023343         -42.945                0               0
76.08                  0.0089778        -42.2432                0               0        0.0382894        -46.9865                0               0
                       0.0215269        -46.0145                0               0         0.997553        -136.904                0               0
                        0.038289        -46.9865                0               0       0.00899471          -41.19                0               0
                        0.997557        -136.906                0               0        0.0215208        -46.2222                0               0
76.125               0.000782949         87.3539                0               0        0.0352599         -49.817                0               0
                       0.0196373        -49.3794                0               0         0.997243        -139.209                0               0
                       0.0352594        -49.8167                0               0      0.000916387         78.7627                0               0
                        0.997249        -139.211                0               0         0.019633        -49.5985                0               0
76.17                  0.0101878          126.68                0               0        0.0321391        -52.7629                0               0
                       0.0176916        -52.8555                0               0         0.996899        -141.544                0               0
                       0.0321385        -52.7623                0               0         0.010188         125.539                0               0
                        0.996907        -141.545                0               0        0.0176889        -53.0887                0               0
76.215                 0.0198585         125.943                0               0         0.028946        -55.8417                0               0
                       0.0156995         -56.466                0               0          0.99661        -143.901                0               0
                       0.0289453        -55.8408                0               0        0.0198486         125.304                0               0
                         0.99662        -143.902                0               0        0.0156988        -56.7171                0               0
76.26                   0.029559         124.214                0               0        0.0257001        -59.0779                0               0
                       0.0136717        -60.2495                0               0         0.996467         -146.27                0               0
                       0.0256993        -59.0765                0               0        0.0295423         123.751                0               0
                        0.996478        -146.271                0               0        0.0136729        -60.5239                0               0
76.305                 0.0392482         122.225                0               0        0.0224213        -62.5066                0               0
                       0.0116192        -64.2725                0               0          0.99654        -148.638                0               0
                       0.0224204        -62.5047                0               0        0.0392257         121.854                0               0
                        0.996552        -148.639                0               0        0.0116224        -64.5784                0               0
76.35                  0.0488875         120.129                0               0        0.0191302        -66.1825                0               0
                      0.00955384        -68.6586                0               0         0.996854        -150.989                0               0
                       0.0191292          -66.18                0               0        0.0488603         119.817                0               0
                        0.996865        -150.991                0               0       0.00955937        -69.0094                0               0
76.395                 0.0584389         117.979                0               0        0.0158479        -70.1985                0               0
                      0.00748919        -73.6649                0               0         0.997361        -153.309                0               0
                       0.0158469        -70.1953                0               0        0.0584081         117.709                0               0
                        0.997371        -153.309                0               0       0.00749738        -74.0837                0               0
76.44                   0.067865         115.794                0               0        0.0125966        -74.7309                0               0
                      0.00544227        -79.9226                0               0         0.997942        -155.582                0               0
                       0.0125956        -74.7268                0               0        0.0678321         115.556                0               0
                         0.99795        -155.583                0               0       0.00545393        -80.4558                0               0
76.485                 0.0771289         113.582                0               0       0.00940019        -80.1739                0               0
                      0.00344288        -89.4833                0               0         0.998427        -157.801                0               0
                      0.00939921        -80.1685                0               0        0.0770955         113.371                0               0
                        0.998433        -157.802                0               0       0.00346023        -90.2384                0               0
76.53                  0.0861947         111.345                0               0       0.00628972        -87.6497                0               0
                      0.00160773        -113.652                0               0         0.998638        -159.964                0               0
                      0.00628879        -87.6421                0               0        0.0861626         111.157                0               0
                        0.998641        -159.965                0               0       0.00163903        -114.812                0               0
76.575                 0.0950277         109.083                0               0       0.00333842        -102.074                0               0
                      0.00118698         154.166                0               0         0.998426        -162.075                0               0
                      0.00333749        -102.062                0               0        0.0949984         108.914                0               0
                        0.998428        -162.077                0               0       0.00121771         155.536                0               0
76.62                   0.103595         106.795                0               0       0.00127307        -168.605                0               0
                       0.0027812         116.407                0               0         0.997695        -164.147                0               0
                      0.00127206         -168.62                0               0         0.103569         106.642                0               0
                        0.997696        -164.148                0               0       0.00278801         117.193                0               0
76.665                  0.111863         104.479                0               0       0.00303725         117.069                0               0
                      0.00456084         104.664                0               0         0.996386        -166.191                0               0
                      0.00303704          117.05                0               0         0.111843          104.34                0               0
                        0.996386        -166.193                0               0       0.00456028         105.111                0               0
76.71                   0.119804         102.138                0               0       0.00566169         101.208                0               0
                      0.00630079         97.5822                0               0         0.994446        -168.222                0               0
                      0.00566148         101.198                0               0         0.119788         102.009                0               0
                        0.994444        -168.224                0               0       0.00629652         97.8747                0               0
76.755                  0.127388         99.7742                0               0       0.00825807         92.8585                0               0
                      0.00796322         92.0424                0               0          0.99179        -170.252                0               0
                      0.00825775         92.8516                0               0         0.127376         99.6532                0               0
                        0.991786        -170.255                0               0       0.00795651          92.248                0               0
76.8                    0.134589          97.393                0               0        0.0107627         86.4541                0               0
                      0.00953175          87.199                0               0         0.988302        -172.287                0               0
                       0.0107623         86.4486                0               0         0.134581         97.2778                0               0
                        0.988297         -172.29                0               0        0.0095232          87.349                0               0
76.845                  0.141385         95.0031                0               0        0.0131662         80.8015                0               0
                       0.0109962         82.7394                0               0         0.983877        -174.324                0               0
                       0.0131656         80.7968                0               0         0.141379         94.8919                0               0
                        0.983871        -174.326                0               0        0.0109862         82.8504                0               0
76.89                   0.147759         92.6147                0               0        0.0154702         75.5147                0               0
                       0.0123499          78.528                0               0         0.978476        -176.353                0               0
                       0.0154697         75.5105                0               0         0.147753         92.5064                0               0
                        0.978469        -176.356                0               0        0.0123387         78.6101                0               0
76.935                  0.153697         90.2396                0               0        0.0176803         70.4456                0               0
                       0.0135888         74.5026                0               0         0.972163        -178.364                0               0
                       0.0176798         70.4419                0               0         0.153691         90.1332                0               0
                        0.972156        -178.367                0               0        0.0135766         74.5621                0               0
76.98                   0.159196         87.8896                0               0        0.0198024         65.5362                0               0
                       0.0147111         70.6351                0               0         0.965092         179.655                0               0
                        0.019802         65.5329                0               0         0.159188          87.785                0               0
                        0.965087         179.652                0               0         0.014698         70.6763                0               0
77.025                  0.164258         85.5766                0               0        0.0218415         60.7672                0               0
                       0.0157172         66.9151                0               0         0.957464         177.711                0               0
                       0.0218411         60.7644                0               0         0.164249         85.4735                0               0
                        0.957459         177.708                0               0        0.0157034         66.9412                0               0
77.07                   0.168894         83.3109                0               0        0.0238008         56.1365                0               0
                       0.0166092         63.3417                0               0         0.949477         175.807                0               0
                       0.0238004         56.1342                0               0         0.168884         83.2093                0               0
                        0.949473         175.805                0               0        0.0165949          63.355                0               0
77.115                  0.173123         81.1011                0               0         0.025681         51.6484                0               0
                       0.0173908         59.9182                0               0         0.941302         173.945                0               0
                       0.0256808         51.6466                0               0         0.173111          81.001                0               0
                        0.941298         173.943                0               0        0.0173761         59.9206                0               0
77.16                   0.176967         78.9536                0               0        0.0274813         47.3084                0               0
                        0.018067         56.6502                0               0         0.933073         172.123                0               0
                        0.027481         47.3071                0               0         0.176955         78.8551                0               0
                         0.93307          172.12                0               0        0.0180521          56.643                0               0
77.205                  0.180454         76.8728                0               0        0.0291987         43.1208                0               0