! TOUCHSTONE file generated by CST MICROWAVE STUDIO
! Date and time: Mon Jun 21 17:06:32 2021
! Project name: HIPS_d_sweep.cst
! Parameters = {a=0.735; b=0.393; d=17.4573; fmax=120; fmin=75; phi=0; theta=0}
! Header version: 2018
! Port assignment regex: !\s*Touchstone port\s*([0-9]+)\s*=\s*(CST MWS port|CST DS port)\s*([0-9]+|Zmin|Zmax)\s*\(\"(.*)\"\)(\s*mode\s*([0-9]+))?.*
! Touchstone port assignment:
! Touchstone port 1 = CST MWS port Zmin ("") mode 1
! Touchstone port 2 = CST MWS port Zmin ("") mode 2
! Touchstone port 3 = CST MWS port Zmax ("") mode 1
! Touchstone port 4 = CST MWS port Zmax ("") mode 2
! S-Parameters are not renormalized. Unphysical impedance of 0 will be written to the file.
# GHz S MA R 0
75                       0.12775         8.48202                0               0         0.422429        -12.1977                0               0
                        0.117343         14.4796                0               0          0.88965         -104.47                0               0
                        0.422429        -12.1976                0               0         0.127724         8.46908                0               0
                        0.889642        -104.469                0               0         0.117309         14.4324                0               0
75.045                  0.126419         8.48699                0               0         0.425364        -12.7875                0               0
                        0.117646          13.652                0               0         0.889015        -104.995                0               0
                        0.425364        -12.7874                0               0         0.126393         8.47417                0               0
                        0.889008        -104.994                0               0         0.117612         13.6045                0               0
75.09                    0.12494         8.46177                0               0         0.428008        -13.4328                0               0
                        0.117873         12.7135                0               0         0.888237        -105.589                0               0
                        0.428008        -13.4327                0               0         0.124915         8.44907                0               0
                         0.88823        -105.588                0               0         0.117839         12.6657                0               0
75.135                  0.123318         8.40799                0               0         0.430368        -14.1365                0               0
                         0.11803         11.6617                0               0         0.887385        -106.254                0               0
                        0.430369        -14.1364                0               0         0.123295         8.39539                0               0
                        0.887379        -106.252                0               0         0.117996         11.6134                0               0
75.18                   0.121557         8.32798                0               0         0.432456        -14.9011                0               0
                        0.118125         10.4949                0               0         0.886521        -106.986                0               0
                        0.432456        -14.9009                0               0         0.121534         8.31546                0               0
                        0.886515        -106.985                0               0         0.118091         10.4461                0               0
75.225                  0.119659         8.22474                0               0         0.434282        -15.7282                0               0
                        0.118165         9.21236                0               0         0.885696        -107.786                0               0
                        0.434283         -15.728                0               0         0.119637         8.21231                0               0
                        0.885689        -107.785                0               0         0.118131         9.16315                0               0
75.27                   0.117625         8.10205                0               0          0.43586        -16.6189                0               0
                        0.118154         7.81429                0               0         0.884952         -108.65                0               0
                        0.435861        -16.6188                0               0         0.117604         8.08969                0               0
                        0.884945        -108.649                0               0          0.11812         7.76452                0               0
75.315                  0.115456         7.96443                0               0         0.437202        -17.5739                0               0
                        0.118097         6.30145                0               0         0.884322        -109.577                0               0
                        0.437202        -17.5737                0               0         0.115437         7.95213                0               0
                        0.884316        -109.576                0               0         0.118064         6.25107                0               0
75.36                   0.113154         7.81731                0               0         0.438319        -18.5928                0               0
                        0.117997         4.67529                0               0         0.883832        -110.564                0               0
                        0.438319        -18.5927                0               0         0.113136         7.80506                0               0
                        0.883826        -110.563                0               0         0.117964         4.62422                0               0
75.405                  0.110719         7.66709                0               0         0.439223        -19.6751                0               0
                        0.117855         2.93781                0               0         0.883499        -111.609                0               0
                        0.439223         -19.675                0               0         0.110702         7.65488                0               0
                        0.883492        -111.608                0               0         0.117822         2.88601                0               0
75.45                   0.108152         7.52132                0               0         0.439923        -20.8196                0               0
                        0.117672         1.09156                0               0          0.88333        -112.709                0               0
                        0.439923        -20.8195                0               0         0.108136         7.50914                0               0
                        0.883324        -112.708                0               0          0.11764         1.03896                0               0
75.495                  0.105454         7.38886                0               0         0.440429        -22.0245                0               0
                        0.117448        -0.86051                0               0          0.88333        -113.862                0               0
                        0.440428        -22.0244                0               0         0.105439          7.3767                0               0
                        0.883324        -113.861                0               0         0.117415       -0.913972                0               0
75.54                   0.102626         7.28011                0               0         0.440746        -23.2878                0               0
                         0.11718        -2.91502                0               0         0.883494        -115.065                0               0
                        0.440746        -23.2877                0               0         0.102612         7.26794                0               0
                        0.883488        -115.064                0               0         0.117148         -2.9694                0               0
75.585                 0.0996714         7.20724                0               0         0.440882        -24.6071                0               0
                        0.116867        -5.06825                0               0         0.883816        -116.316                0               0
                        0.440882         -24.607                0               0         0.099659         7.19506                0               0
                         0.88381        -116.315                0               0         0.116835        -5.12363                0               0
75.63                  0.0965947         7.18453                0               0          0.44084        -25.9796                0               0
                        0.116505         -7.3162                0               0         0.884283        -117.613                0               0
                         0.44084        -25.9795                0               0        0.0965835         7.17231                0               0
                        0.884278        -117.612                0               0         0.116474        -7.37262                0               0
75.675                 0.0934017         7.22871                0               0         0.440624        -27.4024                0               0
                        0.116092         -9.6546                0               0         0.884881        -118.952                0               0
                        0.440624        -27.4023                0               0        0.0933919         7.21643                0               0
                        0.884876        -118.951                0               0         0.116062        -9.71212                0               0
75.72                  0.0901009         7.35935                0               0         0.440238        -28.8722                0               0
                        0.115625         -12.079                0               0         0.885593        -120.333                0               0
                        0.440238        -28.8721                0               0        0.0900924         7.34697                0               0
                        0.885588        -120.332                0               0         0.115596        -12.1376                0               0
75.765                 0.0867037         7.59929                0               0         0.439684        -30.3859                0               0
                        0.115101        -14.5847                0               0           0.8864        -121.753                0               0
                        0.439684        -30.3858                0               0        0.0866966         7.58678                0               0
                        0.886396        -121.752                0               0         0.115074        -14.6446                0               0
75.81                  0.0832249         7.97517                0               0         0.438964        -31.9399                0               0
                        0.114518         -17.167                0               0         0.887285        -123.208                0               0
                        0.438964        -31.9398                0               0        0.0832191         7.96249                0               0
                        0.887281        -123.208                0               0         0.114491        -17.2282                0               0
75.855                 0.0796833         8.51793                0               0         0.438084        -33.5308                0               0
                        0.113873        -19.8213                0               0          0.88823        -124.699                0               0
                        0.438084        -33.5307                0               0        0.0796788         8.50501                0               0
                        0.888227        -124.698                0               0         0.113848        -19.8837                0               0
75.9                   0.0761025         9.26324                0               0         0.437046        -35.1552                0               0
                        0.113167        -22.5426                0               0          0.88922        -126.221                0               0
                        0.437046        -35.1551                0               0        0.0760993         9.25001                0               0
                        0.889217         -126.22                0               0         0.113144        -22.6063                0               0
75.945                 0.0725116          10.252                0               0         0.435858        -36.8098                0               0
                        0.112399        -25.3264                0               0         0.890241        -127.772                0               0
                        0.435858        -36.8096                0               0        0.0725098         10.2383                0               0
                        0.890238        -127.771                0               0         0.112377        -25.3915                0               0
75.99                  0.0689461         11.5301                0               0         0.434526         -38.491                0               0
                        0.111571        -28.1681                0               0         0.891283        -129.349                0               0
                        0.434526        -38.4909                0               0        0.0689455          11.516                0               0
                        0.891281        -129.348                0               0         0.111551        -28.2346                0               0
76.035                 0.0654486         13.1485                0               0          0.43306        -40.1957                0               0
                        0.110684        -31.0634                0               0         0.892341         -130.95                0               0
                         0.43306        -40.1956                0               0        0.0654491         13.1337                0               0
                        0.892339        -130.949                0               0         0.110666        -31.1313                0               0
76.08                  0.0620696         15.1613                0               0         0.431471        -41.9207                0               0
                        0.109743        -34.0082                0               0         0.893412        -132.571                0               0
                        0.431471        -41.9206                0               0        0.0620713         15.1456                0               0
                         0.89341        -132.571                0               0         0.109727        -34.0776                0               0
76.125                 0.0588688         17.6228                0               0         0.429772        -43.6628                0               0
                        0.108751        -36.9985                0               0         0.894499        -134.209                0               0
                        0.429772        -43.6627                0               0        0.0588715          17.606                0               0
                        0.894497        -134.208                0               0         0.108737        -37.0693                0               0
76.17                  0.0559147         20.5817                0               0         0.427977         -45.419                0               0
                        0.107714        -40.0305                0               0         0.895605         -135.86                0               0
                        0.427977        -45.4189                0               0        0.0559181         20.5636                0               0
                        0.895603        -135.859                0               0         0.107702        -40.1028                0               0
76.215                 0.0532844         24.0725                0               0         0.426102        -47.1862                0               0
                        0.106637        -43.1007                0               0         0.896736         -137.52                0               0
                        0.426102         -47.186                0               0        0.0532884         24.0527                0               0
                        0.896735        -137.519                0               0         0.106627        -43.1744                0               0
76.26                  0.0510614         28.1024                0               0         0.424161        -48.9611                0               0
                        0.105526        -46.2052                0               0         0.897895        -139.185                0               0
                        0.424161         -48.961                0               0        0.0510658         28.0807                0               0
                        0.897895        -139.184                0               0         0.105518        -46.2803                0               0
76.305                 0.0493311         32.6371                0               0         0.422167        -50.7405                0               0
                        0.104386          -49.34                0               0         0.899083        -140.852                0               0
                        0.422167        -50.7404                0               0        0.0493355         32.6133                0               0
                        0.899082        -140.852                0               0         0.104381        -49.4165                0               0
76.35                   0.048173         37.5884                0               0          0.42013        -52.5209                0               0
                        0.103221        -52.5008                0               0         0.900286        -142.519                0               0
                         0.42013        -52.5208                0               0        0.0481771         37.5623                0               0
                        0.900286        -142.518                0               0         0.103219        -52.5787                0               0
76.395                 0.0476515         42.8102                0               0         0.418053        -54.2985                0               0
                        0.102035        -55.6826                0               0         0.901478        -144.184                0               0
                        0.418054        -54.2984                0               0         0.047655         42.7819                0               0
                        0.901478        -144.183                0               0         0.102035        -55.7619                0               0
76.44                  0.0478062         48.1105                0               0         0.415935        -56.0693                0               0
                        0.100827        -58.8797                0               0         0.902611        -145.847                0               0
                        0.415935        -56.0692                0               0        0.0478086         48.0804                0               0
                        0.902612        -145.846                0               0          0.10083        -58.9603                0               0
76.485                 0.0486448         53.2787                0               0         0.413762        -57.8292                0               0
                       0.0995955        -62.0857                0               0         0.903611        -147.511                0               0
                        0.413762        -57.8291                0               0         0.048646          53.247                0               0
                        0.903612         -147.51                0               0        0.0996017        -62.1675                0               0
76.53                  0.0501434         58.1188                0               0         0.411511        -59.5739                0               0
                       0.0983341         -65.293                0               0         0.904373        -149.179                0               0
                        0.411511        -59.5738                0               0         0.050143          58.086                0               0
                        0.904374        -149.178                0               0        0.0983432         -65.376                0               0
76.575                 0.0522508         62.4774                0               0         0.409146        -61.2993                0               0
                        0.097033        -68.4935                0               0         0.904765        -150.859                0               0
                        0.409146        -61.2992                0               0        0.0522488         62.4441                0               0
                        0.904765        -150.859                0               0         0.097045        -68.5777                0               0
76.62                  0.0548983         66.2549                0               0         0.406614        -63.0015                0               0
                        0.095678        -71.6779                0               0         0.904645        -152.569                0               0
                        0.406613        -63.0016                0               0        0.0548946         66.2214                0               0
                        0.904644        -152.568                0               0        0.0956928        -71.7632                0               0
76.665                  0.058009         69.3988                0               0         0.403832        -64.6782                0               0
                       0.0942485        -74.8345                0               0            0.904        -154.349                0               0
                         0.40383        -64.6784                0               0        0.0580035         69.3654                0               0
                        0.903998        -154.349                0               0        0.0942659        -74.9209                0               0
76.71                  0.0615041         71.8767                0               0          0.40064        -66.3322                0               0
                       0.0927112        -77.9443                0               0         0.904183        -156.314                0               0
                        0.400637        -66.3328                0               0        0.0614967         71.8436                0               0
                        0.904184        -156.314                0               0        0.0927306        -78.0318                0               0
76.755                 0.0652885         73.5923                0               0         0.396598        -67.9995                0               0
                       0.0909895        -80.9565                0               0         0.914484        -158.276                0               0
                        0.396592        -68.0013                0               0        0.0652791         73.5598                0               0
                        0.914526        -158.276                0               0          0.09101        -81.0453                0               0
76.8                   0.0686931         73.8408                0               0         0.390743          -70.14                0               0
                       0.0887882        -83.5621                0               0         0.919287        -159.086                0               0
                        0.390766        -70.1467                0               0        0.0686811         73.8117                0               0
                        0.919299        -159.084                0               0        0.0888032        -83.6516                0               0
76.845                 0.0700637         78.5806                0               0         0.398022        -71.8856                0               0
                       0.0941177        -85.9479                0               0         0.912562        -160.362                0               0
                        0.398015        -71.8823                0               0         0.070052         78.5453                0               0
                        0.912565        -160.361                0               0        0.0941914        -86.0612                0               0
76.89                  0.0766027         78.8236                0               0         0.393356        -72.7455                0               0
                       0.0880944        -90.7941                0               0         0.907032        -161.877                0               0
                        0.393356        -72.7453                0               0        0.0765901         78.7921                0               0
                        0.907034        -161.876                0               0        0.0881274        -90.8841                0               0
76.935                 0.0812585          78.924                0               0         0.388957          -74.06                0               0
                       0.0857121        -93.7093                0               0          0.90226        -163.421                0               0
                        0.388959        -74.0599                0               0         0.081245         78.8929                0               0
                        0.902263        -163.421                0               0        0.0857479        -93.7999                0               0
76.98                  0.0856708         78.9122                0               0         0.384939         -75.404                0               0
                       0.0836778        -96.6254                0               0         0.897672        -164.955                0               0
                         0.38494         -75.404                0               0        0.0856562         78.8814                0               0
                        0.897675        -164.955                0               0        0.0837158        -96.7168                0               0
77.025                 0.0899727         78.7364                0               0         0.381069        -76.7228                0               0
                       0.0817203        -99.5228                0               0         0.893049        -166.468                0               0
                        0.381069        -76.7227                0               0        0.0899571         78.7059                0               0
                        0.893051        -166.467                0               0        0.0817605         -99.615                0               0
77.07                  0.0941712         78.4061                0               0         0.377289        -78.0045                0               0
                        0.079793        -102.391                0               0         0.888321        -167.956                0               0
                        0.377289        -78.0044                0               0        0.0941546         78.3758                0               0
                        0.888323        -167.956                0               0        0.0798352        -102.484                0               0
77.115                 0.0982537         77.9443                0               0         0.373595        -79.2469                0               0
                       0.0778909        -105.226                0               0         0.883484        -169.419                0               0
                        0.373595        -79.2468                0               0        0.0982362         77.9142                0               0
                        0.883485        -169.419                0               0        0.0779351        -105.319                0               0
77.16                   0.102206         77.3757                0               0         0.370001         -80.451                0               0
                       0.0760211        -108.027                0               0         0.878556        -170.857                0               0
                        0.370001         -80.451                0               0         0.102187         77.3457                0               0
                        0.878558        -170.856                0               0        0.0760672        -108.121                0               0
77.205                  0.106015          76.723                0               0         0.366525        -81.6194                0               0