! TOUCHSTONE file generated by CST MICROWAVE STUDIO
! Date and time: Mon Jun 21 17:06:54 2021
! Project name: HIPS_d_sweep.cst
! Parameters = {a=0.735; b=0.393; d=20.5226; fmax=120; fmin=75; phi=0; theta=0}
! Header version: 2018
! Port assignment regex: !\s*Touchstone port\s*([0-9]+)\s*=\s*(CST MWS port|CST DS port)\s*([0-9]+|Zmin|Zmax)\s*\(\"(.*)\"\)(\s*mode\s*([0-9]+))?.*
! Touchstone port assignment:
! Touchstone port 1 = CST MWS port Zmin ("") mode 1
! Touchstone port 2 = CST MWS port Zmin ("") mode 2
! Touchstone port 3 = CST MWS port Zmax ("") mode 1
! Touchstone port 4 = CST MWS port Zmax ("") mode 2
! S-Parameters are not renormalized. Unphysical impedance of 0 will be written to the file.
# GHz S MA R 0
75                       0.14212        -4.11831                0               0         0.235403        -8.69964                0               0
                       0.0807367         14.0369                0               0         0.958056        -101.466                0               0
                        0.235403        -8.69976                0               0         0.142122        -4.02651                0               0
                        0.958056        -101.466                0               0        0.0807238         14.1113                0               0
75.045                  0.140108        -4.45272                0               0          0.23884        -9.40391                0               0
                       0.0813378         13.1439                0               0         0.957549        -102.084                0               0
                         0.23884        -9.40405                0               0         0.140112        -4.36015                0               0
                        0.957548        -102.084                0               0        0.0813242         13.2315                0               0
75.09                    0.13785        -4.85646                0               0         0.242006        -10.1652                0               0
                       0.0818448         12.1689                0               0         0.957071         -102.78                0               0
                        0.242006        -10.1654                0               0         0.137856        -4.76248                0               0
                         0.95707         -102.78                0               0        0.0818283         12.2619                0               0
75.135                  0.135349        -5.32695                0               0         0.244885        -10.9899                0               0
                       0.0822553         11.0978                0               0         0.956645        -103.555                0               0
                        0.244885          -10.99                0               0         0.135356        -5.23105                0               0
                        0.956644        -103.555                0               0        0.0822358         11.1892                0               0
75.18                   0.132607        -5.86138                0               0         0.247465        -11.8836                0               0
                       0.0825695         9.91699                0               0         0.956289        -104.407                0               0
                        0.247465        -11.8837                0               0         0.132614        -5.76314                0               0
                        0.956289        -104.406                0               0        0.0825485         10.0007                0               0
75.225                  0.129625        -6.45666                0               0         0.249737        -12.8513                0               0
                       0.0827904         8.61316                0               0         0.956022        -105.335                0               0
                        0.249737        -12.8514                0               0         0.129633        -6.35573                0               0
                        0.956022        -105.334                0               0        0.0827704         8.68507                0               0
75.27                   0.126402        -7.10937                0               0         0.251697        -13.8971                0               0
                       0.0829232         7.17436                0               0         0.955856        -106.338                0               0
                        0.251698        -13.8972                0               0         0.126412        -7.00543                0               0
                        0.955856        -106.337                0               0         0.082907         7.23243                0               0
75.315                  0.122939        -7.81561                0               0         0.253346        -15.0241                0               0
                       0.0829748         5.59022                0               0         0.955804        -107.415                0               0
                        0.253346        -15.0242                0               0          0.12295        -7.70839                0               0
                        0.955804        -107.414                0               0        0.0829645         5.63483                0               0
75.36                   0.119234        -8.57093                0               0         0.254686        -16.2342                0               0
                       0.0829528         3.85227                0               0         0.955875        -108.563                0               0
                        0.254686        -16.2343                0               0         0.119246        -8.46016                0               0
                        0.955875        -108.563                0               0        0.0829488         3.88629                0               0
75.405                  0.115284         -9.3701                0               0         0.255723        -17.5282                0               0
                       0.0828649         1.95413                0               0         0.956075        -109.782                0               0
                        0.255723        -17.5283                0               0         0.115299         -9.2555                0               0
                        0.956075        -109.781                0               0        0.0828651         1.98291                0               0
75.45                   0.111088        -10.2069                0               0         0.256464        -18.9057                0               0
                       0.0827179       -0.108467                0               0         0.956407        -111.069                0               0
                        0.256465        -18.9058                0               0         0.111106        -10.0882                0               0
                        0.956407        -111.068                0               0        0.0827171      -0.0771813                0               0
75.495                  0.106646        -11.0738                0               0          0.25692        -20.3652                0               0
                       0.0825167        -2.33777                0               0         0.956872        -112.421                0               0
                         0.25692        -20.3653                0               0         0.106666        -10.9506                0               0
                        0.956872        -112.421                0               0        0.0825065        -2.29397                0               0
75.54                   0.101954        -11.9616                0               0         0.257099        -21.9041                0               0
                       0.0822644        -4.73416                0               0         0.957466        -113.837                0               0
                        0.257099        -21.9042                0               0         0.101977        -11.8334                0               0
                        0.957465        -113.837                0               0        0.0822326        -4.66562                0               0
75.585                 0.0970145        -12.8584                0               0         0.257012        -23.5188                0               0
                        0.081961        -7.29644                0               0         0.958183        -115.314                0               0
                        0.257013        -23.5189                0               0        0.0970409        -12.7248                0               0
                        0.958183        -115.313                0               0        0.0818922        -7.18865                0               0
75.63                  0.0918273        -13.7496                0               0         0.256671         -25.205                0               0
                       0.0816039        -10.0221                0               0         0.959016        -116.848                0               0
                        0.256672        -25.2051                0               0        0.0918572        -13.6098                0               0
                        0.959015        -116.847                0               0          0.08148        -9.85799                0               0
75.675                 0.0863953        -14.6157                0               0         0.256086        -26.9573                0               0
                       0.0811875        -12.9074                0               0         0.959951        -118.437                0               0
                        0.256087        -26.9575                0               0        0.0864291        -14.4689                0               0
                        0.959951        -118.436                0               0        0.0809884         -12.667                0               0
75.72                  0.0807236         -15.431                0               0         0.255268        -28.7702                0               0
                       0.0807034        -15.9481                0               0         0.960975        -120.077                0               0
                        0.255269        -28.7703                0               0        0.0807616        -15.2761                0               0
                        0.960975        -120.077                0               0        0.0804082        -15.6076                0               0
75.765                 0.0748201        -16.1607                0               0         0.254228        -30.6372                0               0
                       0.0801407        -19.1391                0               0          0.96207        -121.766                0               0
                        0.254228        -30.6374                0               0        0.0748625        -15.9962                0               0
                         0.96207        -121.766                0               0        0.0797291        -18.6701                0               0
75.81                  0.0686964         -16.756                0               0         0.252976        -32.5518                0               0
                       0.0794861        -22.4754                0               0         0.963216          -123.5                0               0
                        0.252977         -32.552                0               0        0.0687437          -16.58                0               0
                        0.963216        -123.499                0               0        0.0789406        -21.8428                0               0
75.855                 0.0623693        -17.1469                0               0         0.251524        -34.5072                0               0
                        0.078724        -25.9519                0               0         0.964392        -125.274                0               0
                        0.251525        -34.5074                0               0        0.0624221        -16.9569                0               0
                        0.964392        -125.274                0               0        0.0780327        -25.1127                0               0
75.9                   0.0558626        -17.2288                0               0         0.249882        -36.4964                0               0
                       0.0778359        -29.5646                0               0         0.965573        -127.086                0               0
                        0.249883        -36.4966                0               0        0.0559218        -17.0214                0               0
                        0.965573        -127.086                0               0        0.0769967        -28.4641                0               0
75.945                 0.0492112        -16.8388                0               0         0.248062        -38.5125                0               0
                       0.0767995        -33.3106                0               0         0.966734        -128.932                0               0
                        0.248063        -38.5127                0               0        0.0492781        -16.6096                0               0
                        0.966734        -128.932                0               0        0.0758265        -31.8795                0               0
75.99                  0.0424679        -15.7095                0               0         0.246075        -40.5487                0               0
                        0.075585        -37.1903                0               0         0.967848        -130.807                0               0
                        0.246076        -40.5488                0               0        0.0425447        -15.4527                0               0
                        0.967848        -130.807                0               0        0.0745197        -35.3386                0               0
76.035                 0.0357185        -13.3765                0               0         0.243933        -42.5983                0               0
                       0.0741472        -41.2077                0               0         0.968889        -132.709                0               0
                        0.243934        -42.5984                0               0        0.0358086         -13.085                0               0
                        0.968889        -132.709                0               0        0.0730788        -38.8181                0               0
76.08                  0.0291169        -8.97999                0               0         0.241649         -44.655                0               0
                       0.0724055        -45.3706                0               0         0.969827        -134.633                0               0
                         0.24165        -44.6551                0               0        0.0292258        -8.64848                0               0
                        0.969827        -134.633                0               0        0.0715129        -42.2918                0               0
76.125                 0.0229724       -0.861933                0               0         0.239234        -46.7127                0               0
                       0.0701949        -49.6749                0               0         0.970637        -136.575                0               0
                        0.239235        -46.7128                0               0        0.0231082       -0.500358                0               0
                        0.970637        -136.575                0               0        0.0698401          -45.73                0               0
76.17                  0.0179639         13.9272                0               0         0.236702        -48.7657                0               0
                       0.0671559        -53.9995                0               0         0.971292        -138.532                0               0
                        0.236703        -48.7658                0               0        0.0181345         14.2412                0               0
                        0.971292        -138.532                0               0        0.0680903        -49.1001                0               0
76.215                 0.0154394          37.712                0               0         0.234066        -50.8088                0               0
                        0.062735        -57.5071                0               0         0.971765          -140.5                0               0
                        0.234067        -50.8088                0               0        0.0156346         37.7663                0               0
                        0.971765        -140.499                0               0        0.0663103        -52.3691                0               0
76.26                  0.0166975         63.8536                0               0         0.231339        -52.8371                0               0
                        0.058684        -57.5259                0               0         0.972034        -142.475                0               0
                         0.23134        -52.8371                0               0        0.0168752         63.5854                0               0
                        0.972034        -142.475                0               0         0.064569        -55.5109                0               0
76.305                 0.0211255          82.062                0               0         0.228533        -54.8461                0               0
                       0.0601257        -57.4253                0               0         0.972076        -144.454                0               0
                        0.228534         -54.846                0               0        0.0212637         81.6977                0               0
                        0.972076        -144.454                0               0        0.0629619        -58.5227                0               0
76.35                  0.0272259         92.2373                0               0         0.225661        -56.8319                0               0
                        0.061652        -61.5074                0               0         0.971872        -146.433                0               0
                        0.225662        -56.8317                0               0        0.0273309         91.9003                0               0
                        0.971872        -146.433                0               0        0.0616023        -61.4567                0               0
76.395                 0.0340916         97.6606                0               0         0.222736        -58.7908                0               0
                       0.0611779        -66.3688                0               0         0.971407         -148.41                0               0
                        0.222737        -58.7906                0               0        0.0341729         97.3718                0               0
                        0.971406         -148.41                0               0        0.0605792         -64.459                0               0
76.44                  0.0413028         100.457                0               0          0.21977        -60.7197                0               0
                       0.0597781        -71.0027                0               0         0.970665        -150.382                0               0
                        0.219771        -60.7195                0               0        0.0413672         100.211                0               0
                        0.970664        -150.381                0               0        0.0598661        -67.7677                0               0
76.485                 0.0486542         101.734                0               0         0.216774        -62.6159                0               0
                       0.0580025        -75.3833                0               0         0.969636        -152.345                0               0
                        0.216775        -62.6156                0               0        0.0487058         101.523                0               0
                        0.969636        -152.344                0               0        0.0592404        -71.6007                0               0
76.53                  0.0560311         102.079                0               0         0.213759        -64.4769                0               0
                        0.056065         -79.577                0               0         0.968314        -154.296                0               0
                         0.21376        -64.4765                0               0        0.0560725         101.895                0               0
                        0.968314        -154.296                0               0        0.0583582        -75.9742                0               0
76.575                 0.0633608         101.821                0               0         0.210736        -66.3006                0               0
                        0.054059        -83.6338                0               0         0.966695        -156.235                0               0
                        0.210737        -66.3002                0               0        0.0633937         101.659                0               0
                        0.966694        -156.234                0               0        0.0569874        -80.6685                0               0
76.62                  0.0705928         101.157                0               0         0.207714        -68.0854                0               0
                       0.0520328        -87.5863                0               0         0.964777        -158.158                0               0
                        0.207716        -68.0848                0               0        0.0706184         101.014                0               0
                        0.964776        -158.157                0               0        0.0551383        -85.3999                0               0
76.665                 0.0776893         100.213                0               0         0.204703        -69.8296                0               0
                       0.0500155        -91.4564                0               0         0.962564        -160.063                0               0
                        0.204705         -69.829                0               0        0.0777085         100.086                0               0
                        0.962563        -160.062                0               0        0.0529737        -89.9826                0               0
76.71                  0.0846213         99.0714                0               0         0.201711         -71.532                0               0
                       0.0480267        -95.2602                0               0         0.960061        -161.949                0               0
                        0.201713        -71.5314                0               0        0.0846347         98.9575                0               0
                         0.96006        -161.948                0               0        0.0506685        -94.3517                0               0
76.755                 0.0913657         97.7883                0               0         0.198746        -73.1917                0               0
                       0.0460807        -99.0102                0               0         0.957277        -163.813                0               0
                        0.198748        -73.1911                0               0        0.0913741         97.6862                0               0
                        0.957275        -163.813                0               0        0.0483473        -98.5148                0               0
76.8                   0.0979046         96.4044                0               0         0.195815        -74.8077                0               0
                       0.0441885        -102.718                0               0         0.954222        -165.656                0               0
                        0.195817         -74.807                0               0        0.0979087          96.313                0               0
                         0.95422        -165.655                0               0        0.0460821        -102.507                0               0
76.845                  0.104224         94.9495                0               0         0.192926        -76.3793                0               0
                       0.0423582        -106.392                0               0          0.95091        -167.475                0               0
                        0.192928        -76.3787                0               0         0.104225         94.8677                0               0
                        0.950909        -167.475                0               0        0.0439099        -106.369                0               0
76.89                   0.110315         93.4456                0               0         0.190084         -77.906                0               0
                       0.0405964        -110.043                0               0         0.947357        -169.271                0               0
                        0.190086        -77.9055                0               0         0.110312         93.3726                0               0
                        0.947356         -169.27                0               0        0.0418474        -110.136                0               0
76.935                  0.116169         91.9095                0               0         0.187296        -79.3874                0               0
                        0.038908         -113.68                0               0          0.94358        -171.041                0               0
                        0.187298        -79.3869                0               0         0.116164         91.8446                0               0
                        0.943579         -171.04                0               0        0.0399006        -113.837                0               0
76.98                   0.121782         90.3542                0               0         0.184567        -80.8231                0               0
                       0.0372966        -117.311                0               0         0.939598        -172.786                0               0
                         0.18457        -80.8226                0               0         0.121775         90.2968                0               0
                        0.939596        -172.785                0               0        0.0380701        -117.496                0               0
77.025                  0.127152         88.7895                0               0         0.181904        -82.2129                0               0
                        0.035765        -120.945                0               0          0.93543        -174.505                0               0
                        0.181906        -82.2125                0               0         0.127145         88.7392                0               0
                        0.935429        -174.504                0               0        0.0363545        -121.133                0               0
77.07                   0.132279         87.2234                0               0         0.179311        -83.5566                0               0
                       0.0343151         -124.59                0               0         0.931098        -176.198                0               0
                        0.179313        -83.5562                0               0         0.132272         87.1798                0               0
                        0.931096        -176.197                0               0        0.0347508        -124.764                0               0
77.115                  0.137165          85.662                0               0         0.176795        -84.8542                0               0
                       0.0329484        -128.252                0               0         0.926623        -177.865                0               0
                        0.176797         -84.854                0               0          0.13716         85.6246                0               0
                        0.926621        -177.865                0               0        0.0332562        -128.403                0               0
77.16                   0.141814           84.11                0               0          0.17436        -86.1058                0               0
                       0.0316656         -131.94                0               0         0.922026        -179.507                0               0
                        0.174362        -86.1057                0               0         0.141811         84.0785                0               0
                        0.922024        -179.506                0               0        0.0318673         -132.06                0               0
77.205                   0.14623         82.5712                0               0         0.172012        -87.3116                0               0