! TOUCHSTONE file generated by CST MICROWAVE STUDIO
! Date and time: Mon Jun 21 17:07:16 2021
! Project name: HIPS_d_sweep.cst
! Parameters = {a=0.735; b=0.393; d=23.0854; fmax=120; fmin=75; phi=0; theta=0}
! Header version: 2018
! Port assignment regex: !\s*Touchstone port\s*([0-9]+)\s*=\s*(CST MWS port|CST DS port)\s*([0-9]+|Zmin|Zmax)\s*\(\"(.*)\"\)(\s*mode\s*([0-9]+))?.*
! Touchstone port assignment:
! Touchstone port 1 = CST MWS port Zmin ("") mode 1
! Touchstone port 2 = CST MWS port Zmin ("") mode 2
! Touchstone port 3 = CST MWS port Zmax ("") mode 1
! Touchstone port 4 = CST MWS port Zmax ("") mode 2
! S-Parameters are not renormalized. Unphysical impedance of 0 will be written to the file.
# GHz S MA R 0
75                      0.247428          49.218                0               0        0.0606313         55.6558                0               0
                       0.0323678         77.4507                0               0         0.966455        -41.2139                0               0
                       0.0606317         55.6565                0               0         0.247489         49.2313                0               0
                        0.966466        -41.2108                0               0        0.0322695         77.1462                0               0
75.045                  0.247694         48.5862                0               0        0.0637087         54.8448                0               0
                       0.0329665         77.1482                0               0         0.967582        -41.9051                0               0
                       0.0637073         54.8436                0               0         0.247755          48.599                0               0
                        0.967595        -41.9019                0               0         0.032865         76.8514                0               0
75.09                   0.247803         47.8722                0               0        0.0666544         53.9398                0               0
                       0.0335772         76.7931                0               0          0.96826        -42.6676                0               0
                       0.0666517         53.9375                0               0         0.247866         47.8845                0               0
                        0.968273        -42.6644                0               0        0.0334726         76.5039                0               0
75.135                  0.247783         47.0735                0               0        0.0694345         52.9512                0               0
                       0.0341983         76.3759                0               0         0.968554        -43.5043                0               0
                        0.069431         52.9483                0               0         0.247846         47.0853                0               0
                        0.968568         -43.501                0               0         0.034091         76.0943                0               0
75.18                   0.247655         46.1892                0               0        0.0720165         51.8881                0               0
                       0.0348279          75.886                0               0         0.968536        -44.4174                0               0
                       0.0720128         51.8852                0               0         0.247718         46.2004                0               0
                         0.96855        -44.4142                0               0        0.0347185         75.6119                0               0
75.225                  0.247438         45.2197                0               0        0.0743705         50.7585                0               0
                       0.0354641         75.3112                0               0         0.968279        -45.4085                0               0
                       0.0743669         50.7558                0               0         0.247501         45.2302                0               0
                        0.968292        -45.4052                0               0        0.0353531         75.0445                0               0
75.27                   0.247145         44.1662                0               0          0.07647         49.5689                0               0
                       0.0361045         74.6379                0               0         0.967851        -46.4781                0               0
                       0.0764669         49.5667                0               0         0.247208         44.1761                0               0
                        0.967864        -46.4749                0               0        0.0359926         74.3784                0               0
75.315                  0.246784          43.031                0               0        0.0782928         48.3251                0               0
                       0.0367467         73.8508                0               0          0.96732        -47.6263                0               0
                       0.0782902         48.3234                0               0         0.246847         43.0401                0               0
                        0.967333        -47.6231                0               0        0.0366347         73.5982                0               0
75.36                   0.246356         41.8164                0               0        0.0798214         47.0316                0               0
                       0.0373878         72.9336                0               0         0.966748        -48.8522                0               0
                       0.0798196         47.0305                0               0         0.246419         41.8248                0               0
                         0.96676         -48.849                0               0        0.0372768         72.6875                0               0
75.405                   0.24586         40.5254                0               0         0.081044          45.692                0               0
                       0.0380251         71.8689                0               0         0.966189        -50.1545                0               0
                        0.081043         45.6916                0               0         0.245922         40.5329                0               0
                          0.9662        -50.1514                0               0         0.037916         71.6289                0               0
75.45                   0.245286         39.1608                0               0        0.0819544         44.3093                0               0
                       0.0386554          70.639                0               0          0.96569        -51.5313                0               0
                       0.0819541         44.3094                0               0         0.245348         39.1674                0               0
                        0.965701        -51.5282                0               0        0.0385492         70.4045                0               0
75.495                  0.244624         37.7255                0               0        0.0825517         42.8855                0               0
                       0.0392751         69.2263                0               0         0.965289        -52.9801                0               0
                       0.0825521          42.886                0               0         0.244684         37.7311                0               0
                          0.9653        -52.9771                0               0        0.0391729         68.9967                0               0
75.54                   0.243856         36.2223                0               0        0.0828407         41.4219                0               0
                       0.0398801         67.6147                0               0         0.965018        -54.4981                0               0
                       0.0828417         41.4229                0               0         0.243916         36.2269                0               0
                        0.965028        -54.4951                0               0        0.0397828         67.3891                0               0
75.585                  0.242964         34.6541                0               0        0.0828308         39.9196                0               0
                       0.0404654         65.7905                0               0         0.964896        -56.0821                0               0
                       0.0828321         39.9209                0               0         0.243023         34.6576                0               0
                        0.964905        -56.0791                0               0        0.0403737          65.568                0               0
75.63                   0.241929         33.0234                0               0        0.0825356         38.3788                0               0
                       0.0410246         63.7436                0               0         0.964935        -57.7288                0               0
                       0.0825371         38.3803                0               0         0.241986         33.0258                0               0
                        0.964945        -57.7258                0               0        0.0409392         63.5233                0               0
75.675                  0.240726         31.3332                0               0        0.0819719         36.7997                0               0
                       0.0415498         61.4692                0               0         0.965142        -59.4344                0               0
                       0.0819735         36.8012                0               0         0.240782         31.3344                0               0
                        0.965151        -59.4315                0               0        0.0414707         61.2501                0               0
75.72                   0.239332         29.5862                0               0        0.0811591         35.1819                0               0
                        0.042031         58.9694                0               0         0.965512        -61.1954                0               0
                       0.0811608         35.1834                0               0         0.239388         29.5862                0               0
                        0.965521        -61.1925                0               0        0.0419581         58.7506                0               0
75.765                  0.237725         27.7854                0               0        0.0801184         33.5252                0               0
                       0.0424564          56.254                0               0         0.966037        -63.0079                0               0
                       0.0801199         33.5267                0               0         0.237779          27.784                0               0
                        0.966046        -63.0049                0               0        0.0423888         56.0348                0               0
75.81                    0.23588         25.9338                0               0        0.0788715         31.8291                0               0
                       0.0428125          53.342                0               0         0.966704         -64.868                0               0
                       0.0788729         31.8304                0               0         0.235933         25.9311                0               0
                        0.966712        -64.8651                0               0        0.0427491         53.1221                0               0
75.855                  0.233776         24.0348                0               0        0.0774405         30.0932                0               0
                       0.0430859         50.2616                0               0         0.967493         -66.772                0               0
                       0.0774417         30.0944                0               0         0.233827         24.0307                0               0
                        0.967501        -66.7691                0               0        0.0430253         50.0413                0               0
75.9                    0.231393          22.092                0               0        0.0758468         28.3173                0               0
                       0.0432642         47.0499                0               0         0.968384         -68.716                0               0
                       0.0758477         28.3183                0               0         0.231443         22.0864                0               0
                        0.968392         -68.713                0               0        0.0432049         46.8302                0               0
75.945                  0.228713         20.1092                0               0        0.0741106         26.5011                0               0
                       0.0433393         43.7515                0               0         0.969356        -70.6963                0               0
                       0.0741113          26.502                0               0         0.228761         20.1021                0               0
                        0.969363        -70.6933                0               0        0.0432801         43.5343                0               0
75.99                   0.225721         18.0906                0               0        0.0722508         24.6448                0               0
                        0.043309         40.4156                0               0         0.970386         -72.709                0               0
                       0.0722513         24.6455                0               0         0.225767         18.0819                0               0
                        0.970393         -72.706                0               0        0.0432495         40.2034                0               0
76.035                  0.222408         16.0405                0               0        0.0702845         22.7488                0               0
                       0.0431801         37.0923                0               0         0.971453        -74.7506                0               0
                       0.0702849         22.7495                0               0         0.222451         16.0301                0               0
                        0.971459        -74.7476                0               0        0.0431209         36.8875                0               0
76.08                   0.218765         13.9632                0               0        0.0682269         20.8139                0               0
                       0.0429695         33.8268                0               0         0.972539        -76.8175                0               0
                       0.0682271         20.8145                0               0         0.218807          13.951                0               0
                        0.972545        -76.8145                0               0        0.0429125         33.6312                0               0
76.125                  0.214791         11.8632                0               0         0.066091         18.8413                0               0
                       0.0427047         30.6531                0               0         0.973631        -78.9062                0               0
                       0.0660912         18.8419                0               0         0.214831         11.8492                0               0
                        0.973636        -78.9031                0               0        0.0426527         30.4662                0               0
76.17                   0.210489         9.74472                0               0         0.063888         16.8327                0               0
                       0.0424236         27.5836                0               0         0.974722        -81.0132                0               0
                       0.0638882         16.8334                0               0         0.210526          9.7288                0               0
                        0.974727        -81.0101                0               0        0.0423792         27.4016                0               0
76.215                  0.205866         7.61175                0               0        0.0616272         14.7904                0               0
                       0.0421706         24.5942                0               0          0.97581         -83.135                0               0
                       0.0616274         14.7913                0               0           0.2059          7.5938                0               0
                        0.975814        -83.1319                0               0        0.0421331          24.409                0               0
76.26                   0.200931         5.46774                0               0        0.0593162         12.7176                0               0
                       0.0419808          21.595                0               0         0.976903        -85.2684                0               0
                       0.0593163         12.7186                0               0         0.200964         5.44767                0               0
                        0.976907        -85.2653                0               0        0.0419416            21.4                0               0
76.305                  0.195701          3.3155                0               0        0.0569609         10.6181                0               0
                       0.0418185         18.4076                0               0         0.978017          -87.41                0               0
                       0.0569611         10.6192                0               0         0.195731         3.29319                0               0
                         0.97802        -87.4069                0               0        0.0417631         18.2165                0               0
76.35                   0.190192         1.15712                0               0        0.0545665          8.4966                0               0
                       0.0414537         14.9117                0               0         0.979174        -89.5563                0               0
                       0.0545667         8.49794                0               0          0.19022         1.13243                0               0
                        0.979176        -89.5532                0               0        0.0413947         14.7643                0               0
76.395                  0.184423        -1.00606                0               0        0.0521374         6.35915                0               0
                       0.0406354         11.5056                0               0         0.980401        -91.7041                0               0
                       0.0521376          6.3606                0               0         0.184448        -1.03327                0               0
                        0.980403        -91.7009                0               0        0.0406149         11.3769                0               0
76.44                   0.178413        -3.17317                0               0         0.049678         4.21291                0               0
                       0.0396565         8.70856                0               0         0.981726        -93.8496                0               0
                       0.0496781         4.21438                0               0         0.178435        -3.20307                0               0
                        0.981727        -93.8464                0               0        0.0396502         8.53999                0               0
76.485                  0.172179        -5.34335                0               0        0.0471935         2.06653                0               0
                       0.0388776         6.27661                0               0         0.983166        -95.9895                0               0
                       0.0471934          2.0679                0               0         0.172199        -5.37611                0               0
                        0.983167        -95.9862                0               0        0.0388552         6.09433                0               0
76.53                   0.165738        -7.51479                0               0        0.0446908      -0.0695818                0               0
                       0.0382733         3.81596                0               0         0.984716          -98.12                0               0
                       0.0446906      -0.0685068                0               0         0.165755         -7.5506                0               0
                        0.984717        -98.1167                0               0        0.0382426          3.6495                0               0
76.575                  0.159101        -9.68335                0               0        0.0421802        -2.18276                0               0
                       0.0377029         1.17635                0               0         0.986336        -100.238                0               0
                       0.0421799        -2.18221                0               0         0.159115        -9.72244                0               0
                        0.986337        -100.235                0               0        0.0376763          1.0274                0               0
76.62                   0.152276        -11.8408                0               0        0.0396771        -4.25694                0               0
                       0.0370521        -1.64753                0               0         0.987929        -102.342                0               0
                       0.0396767        -4.25718                0               0         0.152287        -11.8835                0               0
                        0.987929        -102.338                0               0        0.0370345        -1.78783                0               0
76.665                  0.145265        -13.9729                0               0        0.0372039        -6.26998                0               0
                       0.0362451        -4.59686                0               0         0.989333        -104.429                0               0
                       0.0372036        -6.27124                0               0         0.145274        -14.0194                0               0
                        0.989333        -104.425                0               0        0.0362359        -4.73653                0               0
76.71                   0.138068        -16.0576                0               0         0.034793        -8.18766                0               0
                       0.0352423        -7.57809                0               0         0.990324          -106.5                0               0
                       0.0347929        -8.19004                0               0         0.138074        -16.1082                0               0
                        0.990324        -106.497                0               0        0.0352384        -7.72114                0               0
76.755                  0.130682        -18.0641                0               0        0.0324872        -9.95152                0               0
                       0.0340397        -10.4803                0               0         0.990641        -108.558                0               0
                       0.0324875        -9.95479                0               0         0.130685        -18.1193                0               0
                         0.99064        -108.554                0               0         0.034038        -10.6271                0               0
76.8                    0.123109        -19.9535                0               0        0.0303371        -11.4584                0               0
                       0.0326649        -13.1929                0               0         0.990025        -110.603                0               0
                       0.0303379        -11.4619                0               0         0.123109        -20.0138                0               0
                        0.990024        -110.599                0               0        0.0326634        -13.3413                0               0
76.845                  0.115362        -21.6804                0               0         0.028391         -12.537                0               0
                       0.0311678        -15.6211                0               0         0.988274        -112.636                0               0
                       0.0283922        -12.5395                0               0         0.115359        -21.7463                0               0
                        0.988273        -112.632                0               0        0.0311655        -15.7684                0               0
76.89                   0.107471        -23.1949                0               0        0.0266777        -12.9438                0               0
                       0.0296076        -17.6974                0               0         0.985288        -114.656                0               0
                       0.0266786        -12.9441                0               0         0.107463        -23.2669                0               0
                        0.985286        -114.653                0               0        0.0296047        -17.8409                0               0
76.935                  0.099485        -24.4441                0               0        0.0251943        -12.4125                0               0
                       0.0280417        -19.3843                0               0         0.981083         -116.66                0               0
                       0.0251944        -12.4104                0               0        0.0994728        -24.5229                0               0
                        0.981082        -116.656                0               0        0.0280386        -19.5219                0               0
76.98                  0.0914735        -25.3723                0               0        0.0239195        -10.7571                0               0
                       0.0265173        -20.6716                0               0         0.975789        -118.641                0               0
                       0.0239183        -10.7533                0               0         0.091456        -25.4588                0               0
                        0.975787        -118.638                0               0        0.0265147        -20.8018                0               0
77.025                 0.0835188        -25.9188                0               0        0.0228476        -7.96065                0               0
                       0.0250691        -21.5705                0               0         0.969607        -120.596                0               0
                       0.0228453        -7.95638                0               0        0.0834953        -26.0138                0               0
                        0.969605        -120.592                0               0        0.0250674        -21.6922                0               0
77.07                  0.0757085        -26.0139                0               0        0.0220117         -4.1914                0               0
                       0.0237189        -22.1063                0               0          0.96277        -122.519                0               0
                       0.0220091         -4.1875                0               0        0.0756781        -26.1185                0               0
                        0.962768        -122.515                0               0        0.0237184        -22.2189                0               0
77.115                 0.0681292        -25.5727                0               0        0.0214703         0.23754                0               0
                       0.0224781        -22.3127                0               0         0.955507        -124.408                0               0
                       0.0214679        0.240877                0               0         0.068091        -25.6878                0               0
                        0.955505        -124.405                0               0        0.0224793        -22.4155                0               0
77.16                  0.0608638        -24.4853                0               0        0.0212734         4.92682                0               0
                       0.0213507        -22.2271                0               0         0.948015        -126.263                0               0
                       0.0212719         4.92964                0               0        0.0608165        -24.6118                0               0
                        0.948013        -126.259                0               0        0.0213537        -22.3197                0               0
77.205                 0.0539932        -22.6062                0               0        0.0214365         9.46387                0               0