! TOUCHSTONE file generated by CST MICROWAVE STUDIO
! Date and time: Mon Jun 21 17:07:32 2021
! Project name: HIPS_d_sweep.cst
! Parameters = {a=0.735; b=0.393; d=24.6935; fmax=120; fmin=75; phi=0; theta=0}
! Header version: 2018
! Port assignment regex: !\s*Touchstone port\s*([0-9]+)\s*=\s*(CST MWS port|CST DS port)\s*([0-9]+|Zmin|Zmax)\s*\(\"(.*)\"\)(\s*mode\s*([0-9]+))?.*
! Touchstone port assignment:
! Touchstone port 1 = CST MWS port Zmin ("") mode 1
! Touchstone port 2 = CST MWS port Zmin ("") mode 2
! Touchstone port 3 = CST MWS port Zmax ("") mode 1
! Touchstone port 4 = CST MWS port Zmax ("") mode 2
! S-Parameters are not renormalized. Unphysical impedance of 0 will be written to the file.
# GHz S MA R 0
75                       0.25023         41.2786                0               0          0.03834         29.3599                0               0
                       0.0328449         24.3985                0               0         0.966864         131.593                0               0
                       0.0383397         29.3591                0               0         0.250245         41.3084                0               0
                        0.966868         131.593                0               0        0.0328488         24.4042                0               0
75.045                  0.249827          40.612                0               0        0.0344564         27.3269                0               0
                        0.032531         25.4651                0               0         0.967189         130.892                0               0
                       0.0344561         27.3261                0               0         0.249842         40.6414                0               0
                        0.967193         130.891                0               0        0.0325343         25.4711                0               0
75.09                   0.249372         39.8486                0               0        0.0309548         25.0004                0               0
                       0.0322809         26.2887                0               0         0.967421           130.1                0               0
                       0.0309545         24.9994                0               0         0.249387         39.8774                0               0
                        0.967425           130.1                0               0        0.0322838         26.2947                0               0
75.135                  0.248865         38.9904                0               0        0.0278451         22.3939                0               0
                       0.0320922          26.868                0               0           0.9676         129.219                0               0
                       0.0278448         22.3927                0               0          0.24888         39.0185                0               0
                        0.967604         129.219                0               0        0.0320946         26.8737                0               0
75.18                   0.248299         38.0393                0               0        0.0251295         19.5386                0               0
                       0.0319599         27.2019                0               0         0.967763         128.248                0               0
                       0.0251292         19.5373                0               0         0.248314         38.0667                0               0
                        0.967766         128.248                0               0         0.031962          27.207                0               0
75.225                  0.247664         36.9973                0               0        0.0228036         16.4889                0               0
                       0.0318774         27.2896                0               0         0.967934         127.189                0               0
                       0.0228034         16.4873                0               0         0.247679          37.024                0               0
                        0.967938         127.188                0               0        0.0318792          27.294                0               0
75.27                   0.246946         35.8663                0               0        0.0208566         13.3257                0               0
                       0.0318362         27.1316                0               0         0.968134         126.042                0               0
                       0.0208563         13.3239                0               0          0.24696          35.892                0               0
                        0.968138         126.042                0               0        0.0318377         27.1348                0               0
75.315                  0.246126          34.648                0               0        0.0192723         10.1563                0               0
                       0.0318267         26.7291                0               0         0.968376          124.81                0               0
                       0.0192721         10.1544                0               0          0.24614         34.6727                0               0
                        0.968379         124.809                0               0        0.0318281          26.731                0               0
75.36                   0.245183         33.3443                0               0        0.0180306         7.10738                0               0
                       0.0318385         26.0852                0               0         0.968666         123.494                0               0
                       0.0180304         7.10527                0               0         0.245197         33.3679                0               0
                        0.968669         123.493                0               0        0.0318398         26.0855                0               0
75.405                  0.244095         31.9571                0               0        0.0171092         4.31057                0               0
                       0.0318602          25.204                0               0         0.969007         122.096                0               0
                        0.017109         4.30834                0               0         0.244108         31.9796                0               0
                        0.969011         122.096                0               0        0.0318614         25.2025                0               0
75.45                   0.242837         30.4885                0               0        0.0164857         1.88334                0               0
                       0.0318804         24.0919                0               0         0.969398          120.62                0               0
                       0.0164855         1.88102                0               0          0.24285         30.5097                0               0
                        0.969401         120.619                0               0        0.0318816         24.0882                0               0
75.495                  0.241383         28.9409                0               0        0.0161403        -0.09077                0               0
                       0.0318874         22.7562                0               0         0.969834         119.067                0               0
                       0.0161401        -0.09314                0               0         0.241396         28.9608                0               0
                        0.969837         119.067                0               0        0.0318887         22.7501                0               0
75.54                   0.239708         27.3169                0               0        0.0160567         -1.5762                0               0
                         0.03187          21.206                0               0          0.97031         117.441                0               0
                       0.0160565        -1.57859                0               0         0.239721         27.3354                0               0
                        0.970313          117.44                0               0        0.0318714         21.1973                0               0
75.585                  0.237788         25.6196                0               0        0.0162232        -2.58971                0               0
                       0.0318175         19.4514                0               0          0.97082         115.745                0               0
                        0.016223         -2.5921                0               0           0.2378         25.6365                0               0
                        0.970823         115.744                0               0        0.0318189         19.4398                0               0
75.63                   0.235597         23.8523                0               0        0.0166322        -3.19424                0               0
                       0.0317199         17.5032                0               0         0.971361         113.981                0               0
                        0.016632        -3.19659                0               0         0.235609         23.8675                0               0
                        0.971363         113.981                0               0        0.0317215         17.4884                0               0
75.675                  0.233115         22.0187                0               0        0.0172789        -3.48446                0               0
                       0.0315683         15.3726                0               0         0.971929         112.155                0               0
                       0.0172786        -3.48674                0               0         0.233127         22.0322                0               0
                        0.971931         112.154                0               0        0.0315701         15.3544                0               0
75.72                   0.230323         20.1227                0               0        0.0181596        -3.56884                0               0
                       0.0313551         13.0709                0               0         0.972526         110.269                0               0
                       0.0181593        -3.57103                0               0         0.230334         20.1343                0               0
                        0.972528         110.268                0               0        0.0313571         13.0489                0               0
75.765                  0.227206         18.1686                0               0        0.0192706        -3.55293                0               0
                       0.0310738         10.6088                0               0         0.973156         108.326                0               0
                       0.0192702        -3.55501                0               0         0.227216         18.1782                0               0
                        0.973158         108.326                0               0         0.031076         10.5829                0               0
75.81                    0.22375         16.1606                0               0        0.0206071        -3.52735                0               0
                       0.0307192         7.99633                0               0         0.973828         106.331                0               0
                       0.0206067        -3.52928                0               0          0.22376         16.1681                0               0
                         0.97383         106.331                0               0        0.0307217         7.96605                0               0
75.855                  0.219948         14.1031                0               0        0.0221631        -3.56177                0               0
                       0.0302873         5.24216                0               0         0.974553         104.287                0               0
                       0.0221626        -3.56354                0               0         0.219958         14.1083                0               0
                        0.974554         104.287                0               0        0.0302902         5.20725                0               0
75.9                    0.215796         12.0002                0               0        0.0239307        -3.70417                0               0
                       0.0297753         2.35358                0               0         0.975345         102.199                0               0
                       0.0239301        -3.70576                0               0         0.215804         12.0029                0               0
                        0.975346         102.198                0               0        0.0297787         2.31367                0               0
75.945                  0.211291         9.85585                0               0        0.0259009        -3.98342                0               0
                       0.0291814        -0.66396                0               0         0.976221         100.069                0               0
                       0.0259003        -3.98483                0               0         0.211299         9.85603                0               0
                        0.976222         100.068                0               0        0.0291853       -0.709265                0               0
75.99                   0.206435         7.67373                0               0        0.0280634        -4.41362                0               0
                       0.0285045        -3.80699                0               0         0.977196         97.9009                0               0
                       0.0280626        -4.41485                0               0         0.206443         7.67117                0               0
                        0.977196         97.9003                0               0        0.0285089        -3.85813                0               0
76.035                  0.201233         5.45712                0               0        0.0304062        -4.99847                0               0
                        0.027744        -7.07423                0               0         0.978283         95.6994                0               0
                       0.0304054        -4.99952                0               0          0.20124         5.45164                0               0
                        0.978284         95.6988                0               0        0.0277492        -7.13169                0               0
76.08                   0.195689         3.20899                0               0        0.0329162        -5.73516                0               0
                       0.0269002        -10.4668                0               0         0.979494         93.4679                0               0
                       0.0329153        -5.73604                0               0         0.195695         3.20041                0               0
                        0.979494         93.4673                0               0        0.0269062        -10.5311                0               0
76.125                   0.18981        0.932089                0               0        0.0355789        -6.61745                0               0
                       0.0259735        -13.9882                0               0         0.980829         91.2103                0               0
                       0.0355779        -6.61819                0               0         0.189815        0.920169                0               0
                         0.98083         91.2098                0               0        0.0259803          -14.06                0               0
76.17                   0.183602        -1.37094                0               0        0.0383777        -7.63787                0               0
                       0.0249644        -17.6449                0               0         0.982284         88.9308                0               0
                       0.0383767        -7.63849                0               0         0.183607        -1.38645                0               0
                        0.982285         88.9302                0               0        0.0249723         -17.725                0               0
76.215                  0.177073        -3.69729                0               0        0.0412945        -8.78921                0               0
                       0.0238742        -21.4463                0               0         0.983841         86.6333                0               0
                       0.0412935        -8.78974                0               0         0.177077        -3.71667                0               0
                        0.983842         86.6327                0               0        0.0238832        -21.5356                0               0
76.26                    0.17023        -6.04367                0               0        0.0443091        -10.0655                0               0
                        0.022704        -25.4057                0               0         0.985469         84.3222                0               0
                        0.044308        -10.0659                0               0         0.170234        -6.06729                0               0
                         0.98547         84.3216                0               0        0.0227144        -25.5051                0               0
76.305                  0.163081        -8.40597                0               0        0.0473995        -11.4624                0               0
                       0.0214557        -29.5406                0               0         0.987125         82.0015                0               0
                       0.0473983        -11.4628                0               0         0.163084        -8.43423                0               0
                        0.987127         82.0009                0               0        0.0214676        -29.6514                0               0
76.35                   0.155635        -10.7788                0               0         0.050542        -12.9774                0               0
                       0.0201316        -33.8748                0               0         0.988752         79.6755                0               0
                       0.0505409        -12.9778                0               0         0.155637        -10.8122                0               0
                        0.988753         79.6748                0               0        0.0201451        -33.9984                0               0
76.395                  0.147902        -13.1548                0               0        0.0537121        -14.6098                0               0
                       0.0187348          -38.44                0               0         0.990279          77.348                0               0
                       0.0537108        -14.6102                0               0         0.147903         -13.194                0               0
                         0.99028         77.3474                0               0        0.0187503        -38.5784                0               0
76.44                   0.139895        -15.5246                0               0        0.0568843          -16.36                0               0
                       0.0172698        -43.2804                0               0         0.991627          75.023                0               0
                       0.0568831        -16.3605                0               0         0.139896        -15.5701                0               0
                        0.991628         75.0224                0               0        0.0172875        -43.4357                0               0
76.485                  0.131633        -17.8753                0               0        0.0600337        -18.2294                0               0
                       0.0157426        -48.4586                0               0          0.99271         72.7039                0               0
                       0.0600324        -18.2299                0               0         0.131633        -17.9282                0               0
                         0.99271         72.7032                0               0        0.0157629        -48.6335                0               0
76.53                   0.123136        -20.1905                0               0         0.063136        -20.2195                0               0
                       0.0141616         -54.067                0               0         0.993439         70.3937                0               0
                       0.0631347          -20.22                0               0         0.123136        -20.2517                0               0
                        0.993439         70.3931                0               0        0.0141848        -54.2649                0               0
76.575                  0.114432        -22.4488                0               0        0.0661686        -22.3312                0               0
                       0.0125383         -60.248                0               0         0.993728         68.0953                0               0
                       0.0661673        -22.3318                0               0          0.11443        -22.5197                0               0
                        0.993728         68.0947                0               0         0.012565         -60.473                0               0
76.62                   0.105553        -24.6225                0               0        0.0691108        -24.5645                0               0
                       0.0108892        -67.2315                0               0         0.993498         65.8112                0               0
                       0.0691095        -24.5652                0               0          0.10555        -24.7046                0               0
                        0.993498         65.8106                0               0          0.01092         -67.488                0               0
76.665                 0.0965377        -26.6755                0               0        0.0719444        -26.9178                0               0
                      0.00923873        -75.4075                0               0         0.992683         63.5435                0               0
                       0.0719431        -26.9185                0               0        0.0965328        -26.7708                0               0
                        0.992681          63.543                0               0       0.00927457        -75.6994                0               0
76.71                  0.0874314        -28.5599                0               0        0.0746534        -29.3873                0               0
                      0.00762575        -85.4708                0               0         0.991227         61.2944                0               0
                        0.074652        -29.3881                0               0        0.0874237         -28.671                0               0
                        0.991225         61.2939                0               0       0.00766789        -85.7966                0               0
76.755                 0.0782836        -30.2106                0               0        0.0772243        -31.9675                0               0
                      0.00611896        -98.6943                0               0         0.989096         59.0657                0               0
                       0.0772229        -31.9683                0               0        0.0782724        -30.3406                0               0
                        0.989093         59.0652                0               0       0.00616892        -99.0314                0               0
76.8                   0.0691503        -31.5351                0               0        0.0796457        -34.6507                0               0
                      0.00485103        -117.253                0               0         0.986271         56.8591                0               0
                       0.0796442        -34.6515                0               0        0.0691344        -31.6886                0               0
                        0.986268         56.8587                0               0       0.00490959        -117.512                0               0
76.845                  0.060094        -32.3964                0               0        0.0819084        -37.4272                0               0
                      0.00406796        -143.295                0               0         0.982752         54.6765                0               0
                       0.0819069        -37.4281                0               0        0.0600716        -32.5793                0               0
                        0.982749         54.6761                0               0       0.00413114        -143.263                0               0
76.89                  0.0511869        -32.5781                0               0        0.0840049        -40.2859                0               0
                      0.00405205        -173.659                0               0         0.978557         52.5196                0               0
                       0.0840033        -40.2868                0               0        0.0511557         -32.799                0               0
                        0.978554         52.5191                0               0       0.00410769        -173.225                0               0
76.935                 0.0425198        -31.7152                0               0        0.0859297        -43.2145                0               0
                      0.00478386         160.532                0               0          0.97372           50.39                0               0
                       0.0859281        -43.2153                0               0         0.042476         -31.986                0               0
                        0.973717         50.3896                0               0        0.0048235          161.13                0               0
76.98                  0.0342236        -29.1421                0               0         0.087679        -46.1996                0               0
                      0.00595953         142.238                0               0         0.968289         48.2894                0               0
                       0.0876773        -46.2004                0               0        0.0341613        -29.4795                0               0
                        0.968286          48.289                0               0       0.00598466         142.801                0               0
77.025                 0.0265265        -23.5529                0               0        0.0892507        -49.2277                0               0
                      0.00733069         129.266                0               0          0.96232         46.2192                0               0
                        0.089249        -49.2285                0               0        0.0264353         -23.975                0               0
                        0.962318         46.2188                0               0       0.00734526          129.75                0               0
77.07                  0.0199084        -12.3227                0               0        0.0906448        -52.2852                0               0
                      0.00876801         119.464                0               0         0.955883         44.1809                0               0
                        0.090643         -52.286                0               0        0.0197719        -12.8185                0               0
                        0.955881         44.1805                0               0       0.00877506         119.875                0               0
77.115                 0.0154516         8.55244                0               0        0.0918629        -55.3589                0               0
                       0.0102075         111.578                0               0         0.949049         42.1755                0               0
                       0.0918611        -55.3596                0               0        0.0152556         8.15652                0               0
                        0.949048          42.175                0               0        0.0102091         111.929                0               0
77.16                  0.0148022         37.2455                0               0        0.0929087        -58.4361                0               0
                       0.0116155         104.923                0               0         0.941896         40.2038                0               0
                       0.0929069        -58.4367                0               0        0.0145766         37.2848                0               0
                        0.941896         40.2033                0               0        0.0116129         105.228                0               0
77.205                 0.0180278         60.3162                0               0        0.0937877        -61.5052                0               0