! TOUCHSTONE file generated by CST MICROWAVE STUDIO
! Date and time: Mon Jun 21 17:06:39 2021
! Project name: HIPS_d_sweep.cst
! Parameters = {a=0.735; b=0.393; d=18.3618; fmax=120; fmin=75; phi=0; theta=0}
! Header version: 2018
! Port assignment regex: !\s*Touchstone port\s*([0-9]+)\s*=\s*(CST MWS port|CST DS port)\s*([0-9]+|Zmin|Zmax)\s*\(\"(.*)\"\)(\s*mode\s*([0-9]+))?.*
! Touchstone port assignment:
! Touchstone port 1 = CST MWS port Zmin ("") mode 1
! Touchstone port 2 = CST MWS port Zmin ("") mode 2
! Touchstone port 3 = CST MWS port Zmax ("") mode 1
! Touchstone port 4 = CST MWS port Zmax ("") mode 2
! S-Parameters are not renormalized. Unphysical impedance of 0 will be written to the file.
# GHz S MA R 0
75                      0.203679         59.4585                0               0         0.347513        -120.581                0               0
                       0.0775487         148.942                0               0         0.911999         149.397                0               0
                        0.347513        -120.581                0               0         0.203619           59.47                0               0
                        0.911998         149.399                0               0        0.0776549         148.955                0               0
75.045                  0.203403         59.0164                0               0         0.350222        -121.103                0               0
                       0.0782036         147.988                0               0         0.910775         148.853                0               0
                         0.35022        -121.103                0               0         0.203343         59.0278                0               0
                        0.910775         148.855                0               0        0.0783103         148.002                0               0
75.09                   0.203279         58.4926                0               0         0.352656        -121.691                0               0
                       0.0788198         146.877                0               0         0.909745         148.238                0               0
                        0.352655        -121.691                0               0         0.203218          58.504                0               0
                        0.909746         148.239                0               0        0.0789271         146.892                0               0
75.135                  0.203302         57.8988                0               0         0.354809        -122.343                0               0
                       0.0794069         145.607                0               0         0.908871         147.551                0               0
                        0.354808        -122.343                0               0          0.20324           57.91                0               0
                        0.908871         147.552                0               0         0.079515         145.622                0               0
75.18                   0.203462         57.2438                0               0         0.356677        -123.059                0               0
                       0.0799741         144.177                0               0         0.908122         146.794                0               0
                        0.356675        -123.059                0               0         0.203399         57.2549                0               0
                        0.908122         146.796                0               0        0.0800831         144.193                0               0
75.225                  0.203745         56.5343                0               0         0.358258        -123.837                0               0
                       0.0805299          142.59                0               0         0.907474         145.969                0               0
                        0.358257        -123.837                0               0         0.203681         56.5453                0               0
                        0.907472         145.971                0               0        0.0806398         142.607                0               0
75.27                   0.204136         55.7751                0               0         0.359555        -124.676                0               0
                       0.0810816         140.848                0               0         0.906908         145.078                0               0
                        0.359555        -124.676                0               0         0.204071          55.786                0               0
                        0.906906          145.08                0               0        0.0811925         140.866                0               0
75.315                  0.204619         54.9694                0               0         0.360576        -125.574                0               0
                       0.0816356         138.957                0               0         0.906413         144.121                0               0
                        0.360576        -125.575                0               0         0.204552         54.9802                0               0
                         0.90641         144.123                0               0        0.0817476         138.977                0               0
75.36                   0.205177         54.1194                0               0         0.361328         -126.53                0               0
                       0.0821966         136.923                0               0         0.905981         143.101                0               0
                        0.361329        -126.531                0               0         0.205109           54.13                0               0
                        0.905977         143.103                0               0        0.0823098         136.944                0               0
75.405                  0.205795         53.2261                0               0         0.361824        -127.542                0               0
                       0.0827682         134.753                0               0         0.905608          142.02                0               0
                        0.361825        -127.542                0               0         0.205726         53.2366                0               0
                        0.905603         142.022                0               0        0.0828825         134.775                0               0
75.45                   0.206458         52.2902                0               0         0.362077        -128.608                0               0
                       0.0833523         132.454                0               0         0.905294          140.88                0               0
                        0.362078        -128.608                0               0         0.206387         52.3006                0               0
                        0.905289         140.881                0               0        0.0834679         132.477                0               0
75.495                   0.20715         51.3118                0               0         0.362103        -129.725                0               0
                       0.0839498         130.036                0               0         0.905041         139.682                0               0
                        0.362103        -129.726                0               0         0.207079         51.3221                0               0
                        0.905036         139.684                0               0        0.0840667         130.061                0               0
75.54                   0.207858         50.2908                0               0         0.361918        -130.892                0               0
                       0.0845603         127.508                0               0         0.904853          138.43                0               0
                        0.361918        -130.892                0               0         0.207785          50.301                0               0
                        0.904849         138.432                0               0        0.0846785         127.535                0               0
75.585                  0.208566         49.2271                0               0         0.361539        -132.106                0               0
                       0.0851824          124.88                0               0         0.904735         137.126                0               0
                        0.361538        -132.107                0               0         0.208491         49.2372                0               0
                        0.904731         137.128                0               0        0.0853019         124.909                0               0
75.63                   0.209258         48.1205                0               0         0.360985        -133.365                0               0
                       0.0858142         122.162                0               0         0.904691         135.773                0               0
                        0.360984        -133.365                0               0         0.209183         48.1305                0               0
                        0.904687         135.775                0               0         0.085935         122.193                0               0
75.675                  0.209921         46.9712                0               0         0.360272        -134.666                0               0
                       0.0864533         119.364                0               0         0.904725         134.374                0               0
                        0.360271        -134.666                0               0         0.209844         46.9811                0               0
                        0.904721         134.376                0               0        0.0865754         119.397                0               0
75.72                   0.210538         45.7797                0               0         0.359419        -136.007                0               0
                       0.0870971         116.495                0               0         0.904839         132.933                0               0
                        0.359417        -136.007                0               0         0.210459         45.7895                0               0
                        0.904836         132.934                0               0        0.0872206          116.53                0               0
75.765                  0.211093         44.5473                0               0         0.358442        -137.384                0               0
                       0.0877435         113.566                0               0         0.905034         131.451                0               0
                         0.35844        -137.384                0               0         0.211013          44.557                0               0
                        0.905031         131.453                0               0        0.0878682         113.602                0               0
75.81                    0.21157         43.2757                0               0         0.357357        -138.795                0               0
                       0.0883904         110.583                0               0         0.905309         129.933                0               0
                        0.357355        -138.795                0               0         0.211488         43.2852                0               0
                        0.905305         129.935                0               0        0.0885164         110.622                0               0
75.855                  0.211951         41.9676                0               0         0.356178        -140.238                0               0
                       0.0890367         107.557                0               0         0.905657         128.382                0               0
                        0.356177        -140.238                0               0         0.211867          41.977                0               0
                        0.905652         128.383                0               0        0.0891639         107.598                0               0
75.9                    0.212219         40.6268                0               0         0.354919         -141.71                0               0
                       0.0896819         104.494                0               0         0.906072         126.801                0               0
                        0.354918         -141.71                0               0         0.212134         40.6361                0               0
                        0.906066         126.802                0               0        0.0898104         104.538                0               0
75.945                  0.212361          39.258                0               0         0.353592        -143.208                0               0
                       0.0903268         101.402                0               0         0.906543         125.193                0               0
                        0.353592        -143.208                0               0         0.212274         39.2672                0               0
                        0.906536         125.195                0               0        0.0904564         101.448                0               0
75.99                   0.212362         37.8672                0               0         0.352208         -144.73                0               0
                       0.0909727         98.2861                0               0         0.907056         123.562                0               0
                        0.352208         -144.73                0               0         0.212273         37.8763                0               0
                        0.907048         123.563                0               0        0.0911034         98.3345                0               0
76.035                  0.212215         36.4609                0               0         0.350775        -146.274                0               0
                       0.0916221         95.1524                0               0         0.907595          121.91                0               0
                        0.350775        -146.274                0               0         0.212124         36.4699                0               0
                        0.907586         121.912                0               0        0.0917537         95.2034                0               0
76.08                   0.211919         35.0458                0               0         0.349303        -147.837                0               0
                       0.0922777         92.0065                0               0         0.908142          120.24                0               0
                        0.349303        -147.837                0               0         0.211826         35.0548                0               0
                        0.908133         120.242                0               0        0.0924103         92.0599                0               0
76.125                  0.211479         33.6279                0               0         0.347799        -149.417                0               0
                       0.0929426         88.8536                0               0         0.908676         118.554                0               0
                        0.347798        -149.417                0               0         0.211385         33.6368                0               0
                        0.908668         118.556                0               0        0.0930759         88.9096                0               0
76.17                   0.210909         32.2107                0               0         0.346268        -151.014                0               0
                       0.0936188         85.6994                0               0         0.909175         116.856                0               0
                        0.346266        -151.014                0               0         0.210814         32.2194                0               0
                        0.909171         116.858                0               0        0.0937528         85.7579                0               0
76.215                  0.210222         30.7941                0               0         0.344719        -152.624                0               0
                       0.0943073         82.5502                0               0         0.909619         115.145                0               0
                        0.344715        -152.625                0               0         0.210125         30.8028                0               0
                         0.90962         115.147                0               0        0.0944419         82.6112                0               0
76.26                   0.209423         29.3748                0               0         0.343159        -154.249                0               0
                       0.0950059         79.4128                0               0         0.909988         113.424                0               0
                        0.343151        -154.249                0               0         0.209325         29.3832                0               0
                        0.909999         113.426                0               0         0.095141         79.4762                0               0
76.305                  0.208507         27.9468                0               0         0.341598        -155.885                0               0
                       0.0957092         76.2943                0               0         0.910267         111.693                0               0
                        0.341585        -155.886                0               0         0.208407         27.9551                0               0
                        0.910293         111.695                0               0        0.0958447         76.3602                0               0
76.35                   0.207448         26.5049                0               0         0.340047        -157.534                0               0
                       0.0964069         73.2022                0               0         0.910451         109.951                0               0
                         0.34003        -157.534                0               0         0.207347          26.513                0               0
                        0.910499         109.953                0               0        0.0965428         73.2706                0               0
76.395                  0.206213         25.0465                0               0         0.338527        -159.194                0               0
                       0.0970844         70.1432                0               0          0.91056         108.196                0               0
                        0.338504        -159.195                0               0         0.206109         25.0545                0               0
                        0.910638         108.198                0               0        0.0972205         70.2141                0               0
76.44                   0.204761         23.5735                0               0         0.337065        -160.863                0               0
                       0.0977229         67.1231                0               0         0.910659         106.425                0               0
                        0.337035        -160.866                0               0         0.204654         23.5814                0               0
                        0.910777         106.428                0               0        0.0978593         67.1964                0               0
76.485                  0.203059         22.0918                0               0         0.335698         -162.54                0               0
                       0.0983012         64.1456                0               0          0.91092         104.632                0               0
                        0.335664        -162.544                0               0         0.202951         22.0996                0               0
                        0.911087         104.638                0               0        0.0984377         64.2215                0               0
76.53                   0.201087           20.61                0               0         0.334472        -164.218                0               0
                       0.0987977         61.2129                0               0         0.911728         102.818                0               0
                        0.334438        -164.224                0               0         0.200976         20.6179                0               0
                        0.911928          102.83                0               0        0.0989342         61.2914                0               0
76.575                  0.198835         19.1379                0               0         0.333434        -165.885                0               0
                       0.0991924         58.3256                0               0         0.913764         101.006                0               0
                        0.333406        -165.893                0               0         0.198722         19.1459                0               0
                        0.913921         101.027                0               0        0.0993287         58.4067                0               0
76.62                   0.196306         17.6856                0               0           0.3326        -167.522                0               0
                        0.099469         55.4832                0               0         0.917487         99.2877                0               0
                        0.332584         -167.53                0               0         0.196192         17.6938                0               0
                        0.917454         99.3133                0               0        0.0996051         55.5671                0               0
76.665                  0.193512         16.2624                0               0         0.331925        -169.105                0               0
                       0.0996163          52.685                0               0         0.921251         97.7832                0               0
                        0.331923        -169.111                0               0         0.193396         16.2708                0               0
                        0.921043          97.799                0               0        0.0997519         52.7716                0               0
76.71                   0.190472         14.8766                0               0         0.331275        -170.615                0               0
                       0.0996282         49.9303                0               0          0.92198         96.4256                0               0
                         0.33128        -170.619                0               0         0.190355         14.8852                0               0
                        0.921839         96.4295                0               0        0.0997633         50.0197                0               0
76.755                   0.18721         13.5356                0               0         0.330472        -172.051                0               0
                       0.0995039         47.2194                0               0         0.919706         95.0304                0               0
                        0.330471        -172.051                0               0         0.187092         13.5444                0               0
                        0.919696         95.0328                0               0        0.0996383         47.3116                0               0
76.8                     0.18375         12.2457                0               0         0.329377        -173.432                0               0
                       0.0992471         44.5529                0               0         0.916263         93.5467                0               0
                        0.329359        -173.429                0               0         0.183631         12.2547                0               0
                        0.916314          93.552                0               0        0.0993808         44.6479                0               0
76.845                  0.180121         11.0122                0               0         0.327952        -174.781                0               0
                       0.0988654         41.9325                0               0         0.912636         92.0069                0               0
                        0.327915        -174.778                0               0             0.18         11.0214                0               0
                        0.912696         92.0147                0               0        0.0989983         42.0302                0               0
76.89                   0.176349         9.83966                0               0         0.326246        -176.119                0               0
                       0.0983689         39.3599                0               0         0.909062         90.4439                0               0
                        0.326194        -176.116                0               0         0.176228         9.84921                0               0
                        0.909113          90.453                0               0         0.098501         39.4603                0               0
76.935                  0.172462         8.73183                0               0         0.324341        -177.455                0               0
                       0.0977698         36.8372                0               0         0.905534         88.8771                0               0
                        0.324281        -177.454                0               0          0.17234          8.7417                0               0
                        0.905573         88.8865                0               0        0.0979011         36.9403                0               0
76.98                   0.168486         7.69173                0               0         0.322316        -178.792                0               0
                       0.0970815         34.3663                0               0         0.901997         87.3166                0               0
                        0.322254        -178.792                0               0         0.168364         7.70197                0               0
                        0.902026         87.3258                0               0        0.0972119         34.4721                0               0
77.025                  0.164447         6.72178                0               0         0.320229         179.874                0               0
                       0.0963177         31.9487                0               0         0.898408         85.7681                0               0
                         0.32017         179.873                0               0         0.164324         6.73243                0               0
                        0.898429         85.7769                0               0        0.0964472         32.0571                0               0
77.07                   0.160368          5.8238                0               0         0.318122         178.547                0               0
                       0.0954922         29.5853                0               0         0.894735         84.2349                0               0
                        0.318067         178.546                0               0         0.160244         5.83494                0               0
                         0.89475          84.243                0               0        0.0956209         29.6963                0               0
77.115                  0.156269         4.99913                0               0         0.316021         177.231                0               0
                       0.0946182         27.2765                0               0         0.890963          82.719                0               0
                        0.315972          177.23                0               0         0.156144         5.01083                0               0
                        0.890973         82.7265                0               0         0.094746           27.39                0               0
77.16                   0.152171         4.24866                0               0         0.313946         175.931                0               0
                       0.0937082         25.0218                0               0         0.887088          81.222                0               0
                        0.313904         175.929                0               0         0.152045           4.261                0               0
                        0.887095         81.2287                0               0        0.0938352         25.1379                0               0
77.205                   0.14809         3.57289                0               0         0.311912         174.648                0               0