! TOUCHSTONE file generated by CST MICROWAVE STUDIO
! Date and time: Mon Jun 21 17:06:25 2021
! Project name: HIPS_d_sweep.cst
! Parameters = {a=0.735; b=0.393; d=16.8543; fmax=120; fmin=75; phi=0; theta=0}
! Header version: 2018
! Port assignment regex: !\s*Touchstone port\s*([0-9]+)\s*=\s*(CST MWS port|CST DS port)\s*([0-9]+|Zmin|Zmax)\s*\(\"(.*)\"\)(\s*mode\s*([0-9]+))?.*
! Touchstone port assignment:
! Touchstone port 1 = CST MWS port Zmin ("") mode 1
! Touchstone port 2 = CST MWS port Zmin ("") mode 2
! Touchstone port 3 = CST MWS port Zmax ("") mode 1
! Touchstone port 4 = CST MWS port Zmax ("") mode 2
! S-Parameters are not renormalized. Unphysical impedance of 0 will be written to the file.
# GHz S MA R 0
75                      0.189692          55.605                0               0         0.434536         55.3663                0               0
                       0.0941625         143.985                0               0         0.875404        -34.7072                0               0
                        0.434537         55.3662                0               0         0.189662         55.6452                0               0
                        0.875401        -34.7068                0               0        0.0941886         144.026                0               0
75.045                  0.189246          55.203                0               0         0.436953          54.857                0               0
                       0.0946316           143.1                0               0         0.874301        -35.2287                0               0
                        0.436955          54.857                0               0         0.189216         55.2434                0               0
                        0.874299        -35.2282                0               0         0.094658         143.141                0               0
75.09                   0.188929         54.7563                0               0         0.439134         54.3041                0               0
                       0.0950917         142.065                0               0         0.873233         -35.807                0               0
                        0.439137          54.304                0               0         0.188898         54.7969                0               0
                        0.873231        -35.8066                0               0        0.0951183         142.107                0               0
75.135                  0.188734         54.2671                0               0          0.44107         53.7012                0               0
                       0.0955489         140.883                0               0         0.872232        -36.4453                0               0
                        0.441073         53.7011                0               0         0.188703         54.3079                0               0
                        0.872229        -36.4448                0               0        0.0955758         140.925                0               0
75.18                   0.188654         53.7368                0               0         0.442755         53.0433                0               0
                       0.0960086         139.557                0               0          0.87132        -37.1455                0               0
                        0.442757         53.0432                0               0         0.188623         53.7779                0               0
                        0.871318         -37.145                0               0        0.0960358           139.6                0               0
75.225                  0.188681         53.1667                0               0         0.444184         52.3273                0               0
                       0.0964753         138.091                0               0         0.870515        -37.9088                0               0
                        0.444185         52.3273                0               0         0.188649          53.208                0               0
                        0.870512        -37.9083                0               0        0.0965028         138.134                0               0
75.27                   0.188805         52.5575                0               0         0.445356         51.5518                0               0
                       0.0969522         136.489                0               0         0.869822        -38.7353                0               0
                        0.445357         51.5518                0               0         0.188773         52.5991                0               0
                        0.869819        -38.7349                0               0        0.0969803         136.533                0               0
75.315                  0.189017         51.9097                0               0         0.446276         50.7169                0               0
                       0.0974421         134.757                0               0         0.869245        -39.6243                0               0
                        0.446276         50.7168                0               0         0.188984         51.9517                0               0
                        0.869242        -39.6239                0               0        0.0974706         134.801                0               0
75.36                   0.189306         51.2236                0               0         0.446951         49.8241                0               0
                       0.0979465         132.901                0               0         0.868779        -40.5743                0               0
                        0.446951         49.8241                0               0         0.189273          51.266                0               0
                        0.868776        -40.5739                0               0        0.0979755         132.945                0               0
75.405                  0.189661         50.4994                0               0         0.447395         48.8762                0               0
                       0.0984664         130.925                0               0          0.86842        -41.5829                0               0
                        0.447395         48.8762                0               0         0.189627         50.5422                0               0
                        0.868416        -41.5825                0               0        0.0984959          130.97                0               0
75.45                   0.190069         49.7372                0               0         0.447625         47.8763                0               0
                       0.0990018         128.837                0               0         0.868158        -42.6474                0               0
                        0.447626         47.8763                0               0         0.190034         49.7803                0               0
                        0.868154         -42.647                0               0        0.0990319         128.882                0               0
75.495                  0.190518         48.9371                0               0          0.44766         46.8282                0               0
                       0.0995524         126.643                0               0         0.867984        -43.7647                0               0
                        0.447661         46.8282                0               0         0.190483         48.9807                0               0
                         0.86798        -43.7642                0               0        0.0995831         126.689                0               0
75.54                   0.190994         48.0994                0               0         0.447519         45.7357                0               0
                        0.100117          124.35                0               0          0.86789        -44.9314                0               0
                         0.44752         45.7357                0               0         0.190958         48.1434                0               0
                        0.867886        -44.9309                0               0         0.100149         124.397                0               0
75.585                  0.191483         47.2244                0               0         0.447221         44.6023                0               0
                        0.100695         121.966                0               0         0.867867        -46.1441                0               0
                        0.447222         44.6024                0               0         0.191447         47.2689                0               0
                        0.867862        -46.1437                0               0         0.100727         122.014                0               0
75.63                   0.191972          46.313                0               0         0.446782         43.4315                0               0
                        0.101285         119.498                0               0         0.867905        -47.3997                0               0
                        0.446782         43.4315                0               0         0.191935          46.358                0               0
                          0.8679        -47.3992                0               0         0.101318         119.547                0               0
75.675                  0.192445         45.3661                0               0         0.446216         42.2262                0               0
                        0.101886         116.953                0               0         0.867998         -48.695                0               0
                        0.446215         42.2262                0               0         0.192407         45.4117                0               0
                        0.867993        -48.6945                0               0         0.101919         117.003                0               0
75.72                   0.192888         44.3852                0               0         0.445532         40.9888                0               0
                        0.102495         114.339                0               0         0.868138        -50.0272                0               0
                         0.44553         40.9889                0               0          0.19285         44.4314                0               0
                        0.868134        -50.0268                0               0         0.102529          114.39                0               0
75.765                  0.193287         43.3721                0               0         0.444739         39.7215                0               0
                        0.103113         111.664                0               0         0.868322        -51.3939                0               0
                        0.444736         39.7216                0               0         0.193248         43.4189                0               0
                        0.868317        -51.3935                0               0         0.103147         111.716                0               0
75.81                    0.19363          42.329                0               0         0.443841         38.4255                0               0
                        0.103737         108.936                0               0         0.868545        -52.7929                0               0
                        0.443837         38.4256                0               0         0.193591         42.3764                0               0
                         0.86854        -52.7926                0               0         0.103772         108.989                0               0
75.855                  0.193905         41.2584                0               0         0.442841         37.1016                0               0
                        0.104368         106.161                0               0         0.868806        -54.2224                0               0
                        0.442836         37.1017                0               0         0.193864         41.3065                0               0
                        0.868801        -54.2221                0               0         0.104404         106.216                0               0
75.9                      0.1941         40.1632                0               0         0.441744         35.7501                0               0
                        0.105006         103.348                0               0         0.869109        -55.6807                0               0
                        0.441737         35.7502                0               0         0.194059          40.212                0               0
                        0.869103        -55.6804                0               0         0.105042         103.404                0               0
75.945                  0.194207         39.0463                0               0         0.440554         34.3705                0               0
                         0.10565         100.504                0               0         0.869459        -57.1663                0               0
                        0.440547         34.3705                0               0         0.194166         39.0959                0               0
                        0.869453         -57.166                0               0         0.105686          100.56                0               0
75.99                   0.194219         37.9108                0               0         0.439284         32.9622                0               0
                        0.106302         97.6344                0               0         0.869867        -58.6777                0               0
                        0.439277         32.9621                0               0         0.194177         37.9612                0               0
                        0.869862        -58.6775                0               0         0.106338         97.6925                0               0
76.035                   0.19413         36.7598                0               0         0.437952         31.5243                0               0
                         0.10696         94.7474                0               0          0.87035        -60.2134                0               0
                        0.437944          31.524                0               0         0.194087         36.8109                0               0
                        0.870345        -60.2131                0               0         0.106996         94.8067                0               0
76.08                   0.193935         35.5959                0               0         0.436583         30.0566                0               0
                        0.107625         91.8487                0               0         0.870928         -61.771                0               0
                        0.436577         30.0563                0               0         0.193892         35.6479                0               0
                        0.870923        -61.7707                0               0         0.107662         91.9094                0               0
76.125                  0.193632         34.4218                0               0         0.435214         28.5602                0               0
                        0.108298         88.9446                0               0         0.871623        -63.3478                0               0
                        0.435209         28.5598                0               0         0.193587         34.4748                0               0
                        0.871618        -63.3475                0               0         0.108335         89.0066                0               0
76.17                   0.193215         33.2398                0               0         0.433881          27.038                0               0
                        0.108976         86.0404                0               0         0.872452        -64.9402                0               0
                        0.433878         27.0377                0               0          0.19317         33.2938                0               0
                        0.872447        -64.9398                0               0         0.109013         86.1039                0               0
76.215                  0.192683         32.0519                0               0         0.432619         25.4953                0               0
                        0.109657         83.1415                0               0         0.873424        -66.5434                0               0
                        0.432618         25.4951                0               0         0.192636         32.1068                0               0
                         0.87342        -66.5429                0               0         0.109694         83.2064                0               0
76.26                    0.19203         30.8597                0               0         0.431452         23.9393                0               0
                        0.110338         80.2525                0               0         0.874534        -68.1521                0               0
                        0.431452         23.9392                0               0         0.191983         30.9157                0               0
                        0.874529        -68.1515                0               0         0.110375          80.319                0               0
76.305                  0.191253         29.6648                0               0         0.430383         22.3785                0               0
                        0.111012         77.3778                0               0         0.875751        -69.7605                0               0
                        0.430384         22.3786                0               0         0.191204         29.7221                0               0
                        0.875746          -69.76                0               0         0.111049         77.4458                0               0
76.35                   0.190344          28.469                0               0         0.429398         20.8212                0               0
                        0.111673         74.5213                0               0         0.877025        -71.3634                0               0
                          0.4294         20.8215                0               0         0.190295         28.5274                0               0
                        0.877019        -71.3628                0               0          0.11171         74.5907                0               0
76.395                  0.189297          27.274                0               0         0.428467         19.2746                0               0
                         0.11231         71.6861                0               0         0.878282        -72.9561                0               0
                        0.428468         19.2749                0               0         0.189247         27.3336                0               0
                        0.878275        -72.9555                0               0         0.112347         71.7571                0               0
76.44                   0.188104         26.0819                0               0         0.427549         17.7436                0               0
                        0.112912         68.8752                0               0         0.879438        -74.5357                0               0
                         0.42755          17.744                0               0         0.188054         26.1428                0               0
                        0.879431         -74.535                0               0         0.112949         68.9477                0               0
76.485                  0.186757         24.8953                0               0         0.426606         16.2314                0               0
                        0.113466          66.091                0               0         0.880408        -76.1005                0               0
                        0.426607         16.2318                0               0         0.186706         24.9575                0               0
                        0.880401        -76.0998                0               0         0.113503          66.165                0               0
76.53                   0.185248         23.7175                0               0         0.425602         14.7394                0               0
                        0.113958         63.3355                0               0         0.881116        -77.6504                0               0
                        0.425603         14.7397                0               0         0.185197         23.7809                0               0
                        0.881108        -77.6497                0               0         0.113994         63.4109                0               0
76.575                  0.183572         22.5521                0               0         0.424512         13.2677                0               0
                        0.114374         60.6104                0               0         0.881499        -79.1862                0               0
                        0.424513          13.268                0               0         0.183521         22.6168                0               0
                        0.881492        -79.1855                0               0          0.11441         60.6873                0               0
76.62                   0.181724         21.4037                0               0         0.423319         11.8163                0               0
                          0.1147         57.9175                0               0         0.881517         -80.709                0               0
                        0.423319         11.8165                0               0         0.181673         21.4696                0               0
                         0.88151        -80.7083                0               0         0.114734         57.9958                0               0
76.665                  0.179703         20.2769                0               0         0.422013         10.3845                0               0
                        0.114923         55.2582                0               0         0.881145          -82.22                0               0
                        0.422013         10.3846                0               0         0.179652         20.3442                0               0
                        0.881138        -82.2193                0               0         0.114957         55.3379                0               0
76.71                   0.177512         19.1772                0               0         0.420593         8.97191                0               0
                        0.115033         52.6342                0               0         0.880375        -83.7203                0               0
                        0.420593         8.97193                0               0         0.177461         19.2458                0               0
                        0.880369        -83.7195                0               0         0.115066         52.7152                0               0
76.755                  0.175155         18.1099                0               0          0.41906          7.5783                0               0
                        0.115023         50.0471                0               0         0.879212        -85.2103                0               0
                         0.41906         7.57826                0               0         0.175104           18.18                0               0
                        0.879206        -85.2095                0               0         0.115055         50.1296                0               0
76.8                    0.172643         17.0806                0               0         0.417422         6.20358                0               0
                        0.114889         47.4991                0               0         0.877668          -86.69                0               0
                        0.417423         6.20348                0               0         0.172593         17.1521                0               0
                        0.877662        -86.6892                0               0         0.114919         47.5829                0               0
76.845                  0.169988         16.0945                0               0         0.415689         4.84781                0               0
                        0.114631         44.9919                0               0         0.875762        -88.1592                0               0
                         0.41569         4.84768                0               0         0.169938         16.1676                0               0
                        0.875756        -88.1584                0               0          0.11466         45.0771                0               0
76.89                   0.167206         15.1566                0               0         0.413871         3.51122                0               0
                        0.114251         42.5278                0               0         0.873517        -89.6172                0               0
                        0.413872         3.51105                0               0         0.167156         15.2313                0               0
                        0.873512        -89.6163                0               0         0.114279         42.6144                0               0
76.935                  0.164313         14.2713                0               0         0.411982         2.19405                0               0
                        0.113757         40.1087                0               0          0.87096         -91.063                0               0
                        0.411983         2.19387                0               0         0.164265         14.3478                0               0
                        0.870955        -91.0622                0               0         0.113784         40.1967                0               0
76.98                   0.161331         13.4424                0               0         0.410035        0.896572                0               0
                        0.113158         37.7362                0               0         0.868118        -92.4956                0               0
                        0.410036        0.896392                0               0         0.161283         13.5206                0               0
                        0.868113        -92.4948                0               0         0.113184         37.8258                0               0
77.025                  0.158277         12.6729                0               0         0.408045       -0.380977                0               0
                        0.112465          35.412                0               0         0.865022        -93.9139                0               0
                        0.408045        -0.38115                0               0         0.158231          12.753                0               0
                        0.865017        -93.9131                0               0          0.11249         35.5031                0               0
77.07                   0.155174         11.9651                0               0         0.406025        -1.63846                0               0
                        0.111692         33.1367                0               0         0.861702        -95.3168                0               0
                        0.406025        -1.63862                0               0          0.15513         12.0472                0               0
                        0.861697        -95.3159                0               0         0.111716         33.2293                0               0
77.115                   0.15204         11.3204                0               0         0.403991        -2.87584                0               0
                        0.110852         30.9108                0               0         0.858189        -96.7032                0               0
                        0.403991        -2.87598                0               0         0.151997         11.4047                0               0
                        0.858184        -96.7023                0               0         0.110875          31.005                0               0
77.16                   0.148894         10.7398                0               0         0.401957        -4.09326                0               0
                        0.109959          28.734                0               0         0.854516        -98.0721                0               0
                        0.401957        -4.09337                0               0         0.148853         10.8261                0               0
                        0.854511        -98.0712                0               0         0.109982         28.8297                0               0
77.205                  0.145752         10.2233                0               0         0.399937        -5.29098                0               0