! TOUCHSTONE file generated by CST MICROWAVE STUDIO
! Date and time: Mon Jun 21 17:06:53 2021
! Project name: HIPS_d_sweep.cst
! Parameters = {a=0.735; b=0.393; d=20.4221; fmax=120; fmin=75; phi=0; theta=0}
! Header version: 2018
! Port assignment regex: !\s*Touchstone port\s*([0-9]+)\s*=\s*(CST MWS port|CST DS port)\s*([0-9]+|Zmin|Zmax)\s*\(\"(.*)\"\)(\s*mode\s*([0-9]+))?.*
! Touchstone port assignment:
! Touchstone port 1 = CST MWS port Zmin ("") mode 1
! Touchstone port 2 = CST MWS port Zmin ("") mode 2
! Touchstone port 3 = CST MWS port Zmax ("") mode 1
! Touchstone port 4 = CST MWS port Zmax ("") mode 2
! S-Parameters are not renormalized. Unphysical impedance of 0 will be written to the file.
# GHz S MA R 0
75                       0.17657         5.97062                0               0         0.237133         3.46635                0               0
                       0.0813815         32.8676                0               0         0.951824        -89.7831                0               0
                        0.237133          3.4663                0               0         0.176545         5.95435                0               0
                        0.951824         -89.782                0               0        0.0814338         32.9097                0               0
75.045                  0.174782         5.28728                0               0         0.240685         2.86109                0               0
                        0.081918         31.8366                0               0         0.955402        -90.4423                0               0
                        0.240677         2.86332                0               0         0.174755         5.26916                0               0
                        0.955415        -90.4408                0               0        0.0819718         31.8797                0               0
75.09                   0.172826         4.60838                0               0         0.243912         2.17811                0               0
                       0.0824292         30.7473                0               0           0.9578        -91.1369                0               0
                        0.243897         2.18177                0               0         0.172797         4.58861                0               0
                        0.957822         -91.135                0               0        0.0824843         30.7913                0               0
75.135                  0.170684         3.93278                0               0         0.246812          1.4104                0               0
                       0.0829118          29.595                0               0         0.959038        -91.8812                0               0
                        0.246793         1.41475                0               0         0.170654         3.91159                0               0
                        0.959063         -91.879                0               0        0.0829682         29.6399                0               0
75.18                   0.168338         3.25858                0               0         0.249388        0.552479                0               0
                       0.0833624         28.3749                0               0         0.959199         -92.689                0               0
                        0.249368        0.556936                0               0         0.168308         3.23624                0               0
                        0.959224        -92.6866                0               0        0.0834199         28.4207                0               0
75.225                  0.165774         2.58301                0               0         0.251648       -0.399472                0               0
                       0.0837774          27.082                0               0         0.958429        -93.5725                0               0
                        0.251628       -0.395386                0               0         0.165742         2.55981                0               0
                        0.958451          -93.57                0               0         0.083836         27.1288                0               0
75.27                   0.162974         1.90244                0               0         0.253601        -1.44762                0               0
                       0.0841531         25.7112                0               0          0.95692         -94.541                0               0
                        0.253583        -1.44426                0               0         0.162942         1.87869                0               0
                        0.956937        -94.5386                0               0        0.0842126         25.7588                0               0
75.315                  0.159928         1.21241                0               0         0.255258         -2.5925                0               0
                       0.0844856          24.257                0               0         0.954896        -95.6008                0               0
                        0.255246        -2.59012                0               0         0.159895         1.18842                0               0
                        0.954906        -95.5986                0               0        0.0845459         24.3056                0               0
75.36                   0.156626        0.507771                0               0         0.256632        -3.83314                0               0
                        0.084771         22.7141                0               0         0.952589         -96.754                0               0
                        0.256626        -3.83192                0               0         0.156591        0.483816                0               0
                        0.952594        -96.7523                0               0        0.0848318         22.7636                0               0
75.405                  0.153063       -0.217088                0               0         0.257735        -5.16718                0               0
                        0.085005         21.0771                0               0          0.95022        -97.9996                0               0
                        0.257735        -5.16723                0               0         0.153026       -0.240782                0               0
                        0.950221        -97.9983                0               0        0.0850664         21.1275                0               0
75.45                   0.149238        -0.96795                0               0         0.258577        -6.59106                0               0
                       0.0851834         19.3406                0               0         0.947985        -99.3331                0               0
                        0.258585        -6.59242                0               0         0.149198        -0.99122                0               0
                        0.947982        -99.3324                0               0        0.0852453         19.3921                0               0
75.495                  0.145154        -1.75039                0               0         0.259168        -8.10016                0               0
                       0.0853018         17.4996                0               0          0.94604        -100.748                0               0
                        0.259185        -8.10284                0               0         0.145111        -1.77316                0               0
                        0.946035        -100.748                0               0        0.0853641          17.552                0               0
75.54                   0.140817        -2.56938                0               0         0.259518          -9.689                0               0
                       0.0853557         15.5491                0               0         0.944498        -102.236                0               0
                        0.259542        -9.69298                0               0          0.14077        -2.59166                0               0
                        0.944494        -102.236                0               0        0.0854184         15.6026                0               0
75.585                  0.136236        -3.42888                0               0         0.259633        -11.3514                0               0
                       0.0853405         13.4847                0               0         0.943433        -103.788                0               0
                        0.259665        -11.3566                0               0         0.136185        -3.45077                0               0
                         0.94343        -103.789                0               0        0.0854033         13.5394                0               0
75.63                   0.131424        -4.33144                0               0         0.259522        -13.0806                0               0
                       0.0852513         11.3026                0               0         0.942879        -105.396                0               0
                        0.259561         -13.087                0               0         0.131368        -4.35315                0               0
                        0.942877        -105.398                0               0        0.0853143         11.3586                0               0
75.675                  0.126392        -5.27791                0               0         0.259191        -14.8695                0               0
                       0.0850833         8.99966                0               0         0.942838        -107.052                0               0
                        0.259235         -14.877                0               0         0.126331        -5.29973                0               0
                        0.942839        -107.054                0               0        0.0851463         9.05706                0               0
75.72                   0.121154        -6.26711                0               0         0.258645        -16.7109                0               0
                       0.0848314         6.57352                0               0         0.943288        -108.747                0               0
                        0.258694        -16.7194                0               0         0.121088        -6.28939                0               0
                        0.943291        -108.749                0               0        0.0848944         6.63256                0               0
75.765                   0.11572        -7.29554                0               0         0.257893        -18.5971                0               0
                       0.0844908         4.02297                0               0         0.944189        -110.475                0               0
                        0.257945        -18.6065                0               0          0.11565         -7.3187                0               0
                        0.944195        -110.477                0               0        0.0845537         4.08392                0               0
75.81                   0.110103        -8.35714                0               0          0.25694        -20.5209                0               0
                       0.0840566         1.34797                0               0         0.945488        -112.231                0               0
                        0.256993         -20.531                0               0         0.110028        -8.38167                0               0
                        0.945495        -112.233                0               0        0.0841193         1.41112                0               0
75.855                  0.104309        -9.44288                0               0         0.255794        -22.4748                0               0
                       0.0835241        -1.45022                0               0         0.947123        -114.009                0               0
                        0.255849        -22.4855                0               0         0.104231        -9.46929                0               0
                        0.947131        -114.012                0               0        0.0835864        -1.38452                0               0
75.9                   0.0983489        -10.5402                0               0         0.254465        -24.4517                0               0
                        0.082889        -4.36888                0               0         0.949029        -115.807                0               0
                        0.254519        -24.4628                0               0        0.0982672        -10.5691                0               0
                        0.949039        -115.809                0               0        0.0829507        -4.30025                0               0
75.945                 0.0922275        -11.6323                0               0         0.252962        -26.4447                0               0
                       0.0821474        -7.40379                0               0          0.95114        -117.621                0               0
                        0.253013        -26.4561                0               0         0.092143        -11.6642                0               0
                         0.95115        -117.623                0               0        0.0822084        -7.33176                0               0
75.99                  0.0859517        -12.6965                0               0         0.251296        -28.4475                0               0
                       0.0812964        -10.5491                0               0         0.953389        -119.448                0               0
                        0.251344        -28.4588                0               0        0.0858648        -12.7322                0               0
                        0.953399         -119.45                0               0        0.0813564        -10.4732                0               0
76.035                 0.0795282        -13.7024                0               0         0.249479        -30.4539                0               0
                       0.0803338        -13.7975                0               0         0.955713        -121.287                0               0
                        0.249523        -30.4651                0               0        0.0794392        -13.7427                0               0
                        0.955723        -121.288                0               0        0.0803928        -13.7172                0               0
76.08                   0.072965        -14.6081                0               0         0.247523        -32.4583                0               0
                        0.079259        -17.1401                0               0          0.95805        -123.136                0               0
                        0.247562        -32.4691                0               0        0.0728743        -14.6539                0               0
                        0.958059        -123.137                0               0        0.0793165        -17.0548                0               0
76.125                 0.0662732        -15.3548                0               0         0.245442        -34.4558                0               0
                       0.0780725        -20.5667                0               0         0.960342        -124.993                0               0
                        0.245476        -34.4659                0               0        0.0661809        -15.4071                0               0
                         0.96035        -124.994                0               0        0.0781282        -20.4758                0               0
76.17                  0.0594687        -15.8564                0               0          0.24325        -36.4417                0               0
                       0.0767765        -24.0657                0               0         0.962535        -126.857                0               0
                        0.243279         -36.451                0               0        0.0593746        -15.9164                0               0
                        0.962541        -126.858                0               0        0.0768301        -23.9688                0               0
76.215                 0.0525752         -15.982                0               0         0.240961        -38.4121                0               0
                       0.0753751         -27.625                0               0         0.964576        -128.728                0               0
                        0.240984        -38.4203                0               0        0.0524789         -16.051                0               0
                        0.964581        -128.728                0               0        0.0754263        -27.5213                0               0
76.26                  0.0456296        -15.5223                0               0         0.238591        -40.3636                0               0
                       0.0738739        -31.2315                0               0         0.966421        -130.604                0               0
                        0.238608        -40.3705                0               0        0.0455304        -15.6018                0               0
                        0.966424        -130.604                0               0        0.0739223        -31.1205                0               0
76.305                 0.0386922        -14.1232                0               0         0.236152        -42.2933                0               0
                       0.0722804        -34.8719                0               0         0.968024        -132.484                0               0
                        0.236164        -42.2988                0               0         0.038589        -14.2142                0               0
                        0.968026        -132.484                0               0        0.0723257        -34.7531                0               0
76.35                  0.0318696        -11.1461                0               0         0.233658         -44.199                0               0
                       0.0706036         -38.533                0               0         0.969348        -134.367                0               0
                        0.233666        -44.2028                0               0        0.0317607        -11.2469                0               0
                        0.969349        -134.366                0               0        0.0706454        -38.4058                0               0
76.395                 0.0253694         -5.3661                0               0         0.231124         -46.079                0               0
                       0.0688537        -42.2019                0               0         0.970357        -136.252                0               0
                        0.231127        -46.0809                0               0        0.0252526        -5.46591                0               0
                        0.970357        -136.251                0               0        0.0688918        -42.0658                0               0
76.44                  0.0196417         5.58496                0               0          0.22856         -47.932                0               0
                       0.0670421        -45.8664                0               0          0.97102        -138.138                0               0
                        0.228561        -47.9319                0               0         0.019516         5.52815                0               0
                         0.97102        -138.136                0               0        0.0670761         -45.721                0               0
76.485                 0.0156842         25.1689                0               0         0.225979        -49.7573                0               0
                       0.0651808        -49.5153                0               0          0.97131        -140.023                0               0
                        0.225977        -49.7551                0               0        0.0155575         25.2678                0               0
                         0.97131        -140.021                0               0        0.0652104        -49.3602                0               0
76.53                  0.0150521         52.0732                0               0         0.223389        -51.5546                0               0
                        0.063282        -53.1386                0               0         0.971206        -141.906                0               0
                        0.223387        -51.5503                0               0        0.0149518         52.3991                0               0
                        0.971206        -141.904                0               0        0.0633069        -52.9735                0               0
76.575                 0.0181189         74.7416                0               0           0.2208        -53.3241                0               0
                       0.0613579        -56.7277                0               0         0.970688        -143.785                0               0
                        0.220798        -53.3176                0               0        0.0180616         75.1243                0               0
                        0.970688        -143.783                0               0         0.061378        -56.5524                0               0
76.62                  0.0234569         88.0729                0               0         0.218217        -55.0665                0               0
                       0.0594203        -60.2756                0               0         0.969743         -145.66                0               0
                        0.218217        -55.0578                0               0        0.0234326         88.3986                0               0
                        0.969744        -145.657                0               0        0.0594353        -60.0897                0               0
76.665                 0.0298262         95.0974                0               0         0.215646        -56.7824                0               0
                       0.0574805        -63.7766                0               0         0.968363        -147.527                0               0
                        0.215649        -56.7718                0               0        0.0298227         95.3604                0               0
                        0.968365        -147.524                0               0        0.0574903        -63.5801                0               0
76.71                  0.0366313         98.6666                0               0         0.213089        -58.4732                0               0
                       0.0555486        -67.2267                0               0         0.966543        -149.386                0               0
                        0.213096        -58.4607                0               0        0.0366414          98.882                0               0
                        0.966547        -149.383                0               0         0.055553        -67.0195                0               0
76.755                 0.0435971         100.308                0               0         0.210545        -60.1399                0               0
                        0.053634        -70.6237                0               0         0.964284        -151.234                0               0
                        0.210559         -60.126                0               0        0.0436164         100.489                0               0
                        0.964289        -151.231                0               0         0.053633        -70.4055                0               0
76.8                   0.0505798          100.81                0               0         0.208014        -61.7839                0               0
                       0.0517449        -73.9663                0               0         0.961591         -153.07                0               0
                        0.208035        -61.7689                0               0        0.0506058         100.965                0               0
                        0.961599        -153.067                0               0        0.0517385        -73.7372                0               0
76.845                 0.0574939         100.601                0               0         0.205488        -63.4061                0               0
                       0.0498884         -77.255                0               0         0.958476        -154.892                0               0
                        0.205518        -63.3905                0               0         0.057525         100.736                0               0
                        0.958485        -154.889                0               0        0.0498765        -77.0149                0               0
76.89                  0.0642824         99.9279                0               0          0.20296        -65.0068                0               0
                       0.0480706        -80.4915                0               0         0.954953        -156.698                0               0
                        0.202998        -64.9915                0               0        0.0643174         100.048                0               0
                        0.954963        -156.695                0               0        0.0480531        -80.2404                0               0
76.935                 0.0709048         98.9455                0               0         0.200419        -66.5855                0               0
                       0.0462963        -83.6783                0               0         0.951042        -158.486                0               0
                        0.200466        -66.5711                0               0        0.0709429         99.0527                0               0
                        0.951053        -158.483                0               0        0.0462733        -83.4163                0               0
76.98                  0.0773314         97.7533                0               0         0.197852        -68.1399                0               0
                       0.0445698        -86.8194                0               0         0.946767        -160.254                0               0
                        0.197906        -68.1274                0               0        0.0773719         97.8502                0               0
                        0.946779        -160.251                0               0        0.0445412        -86.5464                0               0
77.025                   0.08354         96.4191                0               0         0.195246        -69.6656                0               0
                        0.042894        -89.9194                0               0         0.942156            -162                0               0
                        0.195306        -69.6558                0               0        0.0835824         96.5074                0               0
                        0.942169        -161.997                0               0        0.0428599        -89.6354                0               0
77.07                  0.0895149         94.9906                0               0         0.192593        -71.1556                0               0
                       0.0412716        -92.9837                0               0         0.937241        -163.724                0               0
                        0.192655        -71.1492                0               0        0.0895589         95.0715                0               0
                        0.937255        -163.721                0               0         0.041232        -92.6889                0               0
77.115                 0.0952458         93.5022                0               0         0.189889        -72.5999                0               0
                       0.0397043        -96.0186                0               0         0.932059        -165.423                0               0
                         0.18995        -72.5973                0               0        0.0952908         93.5768                0               0
                        0.932073         -165.42                0               0        0.0396592         -95.713                0               0
77.16                   0.100727         91.9794                0               0         0.187147        -73.9862                0               0
                       0.0381935        -99.0308                0               0         0.926648        -167.096                0               0
                        0.187202        -73.9872                0               0         0.100772         92.0485                0               0
                        0.926661        -167.093                0               0        0.0381428        -98.7145                0               0
77.205                  0.105956         90.4412                0               0         0.184394        -75.3015                0               0