! TOUCHSTONE file generated by CST MICROWAVE STUDIO
! Date and time: Mon Jun 21 17:07:43 2021
! Project name: HIPS_d_sweep.cst
! Parameters = {a=0.735; b=0.393; d=25.8492; fmax=120; fmin=75; phi=0; theta=0}
! Header version: 2018
! Port assignment regex: !\s*Touchstone port\s*([0-9]+)\s*=\s*(CST MWS port|CST DS port)\s*([0-9]+|Zmin|Zmax)\s*\(\"(.*)\"\)(\s*mode\s*([0-9]+))?.*
! Touchstone port assignment:
! Touchstone port 1 = CST MWS port Zmin ("") mode 1
! Touchstone port 2 = CST MWS port Zmin ("") mode 2
! Touchstone port 3 = CST MWS port Zmax ("") mode 1
! Touchstone port 4 = CST MWS port Zmax ("") mode 2
! S-Parameters are not renormalized. Unphysical impedance of 0 will be written to the file.
# GHz S MA R 0
75                      0.185848         84.5318                0               0         0.116353        -97.5232                0               0
                       0.0417144         53.7586                0               0         0.974773        -4.16182                0               0
                        0.116352         -97.523                0               0         0.185843         84.4584                0               0
                        0.974773        -4.16333                0               0        0.0417065         53.7013                0               0
75.045                  0.187701         83.8615                0               0          0.11132        -97.8564                0               0
                       0.0409159         53.3143                0               0         0.975369        -4.90988                0               0
                        0.111323        -97.8569                0               0         0.187696         83.7888                0               0
                        0.975369        -4.91138                0               0        0.0409094         53.2654                0               0
75.09                   0.189697          83.092                0               0         0.107106        -98.6537                0               0
                       0.0401694         52.7065                0               0         0.975593        -5.75203                0               0
                         0.10711        -98.6543                0               0         0.189692         83.0201                0               0
                        0.975592        -5.75353                0               0        0.0401638         52.6606                0               0
75.135                   0.19185         82.2224                0               0         0.103671        -99.7935                0               0
                       0.0394945         51.9399                0               0         0.975515        -6.68884                0               0
                        0.103675        -99.7936                0               0         0.191846         82.1515                0               0
                        0.975515        -6.69033                0               0        0.0394895         51.8924                0               0
75.18                   0.194172         81.2527                0               0         0.100941        -101.176                0               0
                       0.0389073         51.0218                0               0         0.975204        -7.72012                0               0
                        0.100943        -101.176                0               0         0.194168          81.183                0               0
                        0.975204        -7.72161                0               0        0.0389029         50.9691                0               0
75.225                  0.196668         80.1837                0               0        0.0988304        -102.725                0               0
                       0.0384206         49.9605                0               0          0.97472        -8.84507                0               0
                       0.0988299        -102.724                0               0         0.196663         80.1153                0               0
                        0.974719        -8.84656                0               0        0.0384167         49.9003                0               0
75.27                   0.199338         79.0167                0               0        0.0972575        -104.378                0               0
                       0.0380436         48.7638                0               0         0.974114        -10.0623                0               0
                       0.0972538        -104.378                0               0         0.199333         78.9496                0               0
                        0.974114        -10.0638                0               0        0.0380401          48.695                0               0
75.315                  0.202176         77.7533                0               0        0.0961481         -106.09                0               0
                       0.0377822         47.4377                0               0         0.973433        -11.3698                0               0
                       0.0961409        -106.091                0               0         0.202171         77.6876                0               0
                        0.973434        -11.3713                0               0        0.0377786         47.3603                0               0
75.36                   0.205171         76.3958                0               0        0.0954374        -107.824                0               0
                       0.0376386          45.985                0               0         0.972714        -12.7652                0               0
                       0.0954267        -107.827                0               0         0.205166         76.3315                0               0
                        0.972715        -12.7667                0               0        0.0376345         45.9003                0               0
75.405                  0.208305         74.9464                0               0        0.0950681        -109.549                0               0
                       0.0376117         44.4052                0               0         0.971984        -14.2457                0               0
                        0.095054        -109.555                0               0           0.2083         74.8836                0               0
                        0.971986        -14.2472                0               0        0.0376068         44.3155                0               0
75.45                   0.211553         73.4079                0               0        0.0949854        -111.236                0               0
                       0.0376968         42.6948                0               0         0.971266        -15.8081                0               0
                       0.0949688        -111.245                0               0         0.211549         73.3466                0               0
                        0.971267        -15.8096                0               0        0.0376909         42.6027                0               0
75.495                  0.214885         71.7832                0               0        0.0951254        -112.849                0               0
                       0.0378854         40.8478                0               0         0.970572        -17.4489                0               0
                       0.0951083        -112.864                0               0         0.214881         71.7235                0               0
                        0.970574        -17.4504                0               0        0.0378787         40.7565                0               0
75.54                   0.218264         70.0759                0               0         0.095384        -114.346                0               0
                       0.0381654         38.8575                0               0         0.969911        -19.1644                0               0
                       0.0953714        -114.367                0               0         0.218261         70.0176                0               0
                        0.969913        -19.1659                0               0        0.0381584         38.7699                0               0
75.585                  0.221649         68.2897                0               0        0.0955413         -115.69                0               0
                        0.038521         36.7182                0               0         0.969283        -20.9507                0               0
                        0.095543        -115.716                0               0         0.221647         68.2328                0               0
                        0.969285        -20.9521                0               0        0.0385147         36.6366                0               0
75.63                   0.224997         66.4291                0               0        0.0951488         -116.97                0               0
                       0.0389335         34.4268                0               0         0.968687        -22.8035                0               0
                       0.0951755        -116.992                0               0         0.224996         66.3736                0               0
                        0.968688        -22.8049                0               0        0.0389289         34.3527                0               0
75.675                   0.22826         64.4991                0               0        0.0939257        -118.752                0               0
                       0.0393823          31.984                0               0         0.968114        -24.7186                0               0
                       0.0939552        -118.754                0               0         0.228261          64.445                0               0
                        0.968116          -24.72                0               0        0.0393807         31.9177                0               0
75.72                   0.231391         62.5054                0               0        0.0932689        -121.594                0               0
                       0.0398461          29.395                0               0         0.967558        -26.6916                0               0
                       0.0932683        -121.593                0               0         0.231393         62.4527                0               0
                        0.967559         -26.693                0               0        0.0398485          29.336                0               0
75.765                  0.234344         60.4543                0               0        0.0943838        -124.582                0               0
                       0.0403043         26.6692                0               0         0.967007        -28.7181                0               0
                       0.0943827        -124.593                0               0         0.234348         60.4029                0               0
                        0.967008        -28.7196                0               0        0.0403112         26.6161                0               0
75.81                   0.237076         58.3523                0               0        0.0963214        -127.063                0               0
                       0.0407385         23.8189                0               0         0.966452        -30.7936                0               0
                       0.0963309        -127.074                0               0         0.237081         58.3022                0               0
                        0.966454        -30.7951                0               0        0.0407501         23.7698                0               0
75.855                  0.239546         56.2065                0               0        0.0983696        -129.195                0               0
                       0.0411332         20.8581                0               0         0.965885        -32.9137                0               0
                       0.0983834        -129.203                0               0         0.239552         56.1577                0               0
                        0.965887        -32.9151                0               0        0.0411489         20.8111                0               0
75.9                    0.241721         54.0237                0               0         0.100385        -131.173                0               0
                       0.0414766         17.8003                0               0           0.9653        -35.0737                0               0
                        0.100398        -131.177                0               0         0.241728         53.9761                0               0
                        0.965302        -35.0752                0               0        0.0414955         17.7538                0               0
75.945                  0.243571         51.8106                0               0         0.102382        -133.093                0               0
                       0.0417603         14.6579                0               0         0.964695        -37.2695                0               0
                        0.102393        -133.095                0               0         0.243579         51.7644                0               0
                        0.964696        -37.2709                0               0        0.0417811         14.6105                0               0
75.99                   0.245076         49.5733                0               0         0.104392            -135                0               0
                       0.0419789           11.44                0               0         0.964072        -39.4965                0               0
                        0.104401        -135.001                0               0         0.245085         49.5285                0               0
                        0.964073         -39.498                0               0        0.0420003         11.3912                0               0
76.035                  0.246221         47.3172                0               0         0.106443        -136.914                0               0
                       0.0421296         8.15283                0               0         0.963439        -41.7508                0               0
                        0.106449        -136.914                0               0          0.24623         47.2739                0               0
                        0.963441        -41.7523                0               0        0.0421503         8.10212                0               0
76.08                   0.246994         45.0465                0               0         0.108552        -138.848                0               0
                       0.0422112         4.79859                0               0          0.96281        -44.0283                0               0
                        0.108556        -138.848                0               0         0.247004         45.0047                0               0
                        0.962813        -44.0298                0               0        0.0422304         4.74612                0               0
76.125                   0.24739         42.7644                0               0         0.110732        -140.809                0               0
                       0.0422237         1.37622                0               0         0.962207        -46.3253                0               0
                        0.110734        -140.809                0               0         0.247401         42.7242                0               0
                         0.96221        -46.3268                0               0        0.0422407         1.32224                0               0
76.17                   0.247409         40.4728                0               0         0.112995        -142.802                0               0
                       0.0421677        -2.11859                0               0         0.961656         -48.638                0               0
                        0.112996        -142.802                0               0         0.247419         40.4342                0               0
                         0.96166        -48.6395                0               0        0.0421824        -2.17372                0               0
76.215                  0.247048         38.1724                0               0          0.11535         -144.83                0               0
                       0.0420444        -5.69279                0               0         0.961191        -50.9631                0               0
                         0.11535         -144.83                0               0          0.24706         38.1353                0               0
                        0.961194        -50.9647                0               0        0.0420571        -5.74876                0               0
76.26                   0.246311         35.8628                0               0         0.117809        -146.895                0               0
                       0.0418553        -9.35537                0               0         0.960847        -53.2974                0               0
                        0.117808        -146.895                0               0         0.246323         35.8273                0               0
                        0.960851        -53.2989                0               0        0.0418667         -9.4119                0               0
76.305                  0.245199          33.543                0               0         0.120382        -148.996                0               0
                       0.0416027        -13.1165                0               0         0.960663        -55.6376                0               0
                        0.120381        -148.996                0               0         0.245212          33.509                0               0
                        0.960668        -55.6392                0               0        0.0416141        -13.1733                0               0
76.35                   0.243717         31.2116                0               0         0.123084        -151.129                0               0
                       0.0412902        -16.9863                0               0         0.960677        -57.9808                0               0
                        0.123083        -151.129                0               0          0.24373         31.1791                0               0
                        0.960682        -57.9824                0               0         0.041303         -17.043                0               0
76.395                  0.241869         28.8679                0               0         0.125927        -153.285                0               0
                       0.0409229        -20.9729                0               0         0.960918        -60.3237                0               0
                        0.125927        -153.285                0               0         0.241883         28.8367                0               0
                        0.960923        -60.3254                0               0        0.0409388        -21.0288                0               0
76.44                   0.239667         26.5124                0               0         0.128919        -155.448                0               0
                       0.0405077        -25.0796                0               0           0.9614        -62.6633                0               0
                        0.128919        -155.447                0               0         0.239681         26.4823                0               0
                        0.961405         -62.665                0               0        0.0405284        -25.1333                0               0
76.485                  0.237122         24.1485                0               0          0.13205        -157.595                0               0
                       0.0400522         -29.301                0               0         0.962118        -64.9961                0               0
                        0.132049        -157.594                0               0         0.237138         24.1195                0               0
                        0.962122        -64.9978                0               0        0.0400787        -29.3503                0               0
76.53                   0.234251         21.7845                0               0         0.135272        -159.699                0               0
                       0.0395615        -33.6187                0               0         0.963032        -67.3186                0               0
                        0.135272        -159.698                0               0         0.234269         21.7564                0               0
                        0.963036        -67.3204                0               0        0.0395935        -33.6609                0               0
76.575                  0.231062         19.4346                0               0         0.138487        -161.739                0               0
                       0.0390322        -38.0001                0               0         0.964067        -69.6275                0               0
                        0.138485        -161.737                0               0         0.231082         19.4077                0               0
                         0.96407        -69.6293                0               0         0.039068        -38.0335                0               0
76.62                   0.227547          17.119                0               0         0.141542        -163.715                0               0
                        0.038446        -42.4055                0               0           0.9651        -71.9198                0               0
                        0.141539        -163.713                0               0          0.22757         17.0935                0               0
                        0.965103        -71.9216                0               0        0.0384827        -42.4309                0               0
76.665                  0.223672         14.8601                0               0         0.144282        -165.664                0               0
                       0.0377681        -46.8045                0               0          0.96597        -74.1929                0               0
                        0.144278        -165.663                0               0         0.223696         14.8363                0               0
                        0.965973        -74.1948                0               0        0.0378032        -46.8259                0               0
76.71                   0.219382         12.6767                0               0         0.146618        -167.648                0               0
                        0.036956        -51.1944                0               0         0.966481        -76.4455                0               0
                        0.146615        -167.647                0               0         0.219405         12.6549                0               0
                        0.966484        -76.4474                0               0        0.0369891        -51.2182                0               0
76.755                  0.214624         10.5793                0               0         0.148567        -169.727                0               0
                       0.0359766        -55.6069                0               0         0.966422         -78.677                0               0
                        0.148565        -169.726                0               0         0.214646         10.5595                0               0
                        0.966426        -78.6789                0               0        0.0360096        -55.6385                0               0
76.8                    0.209378         8.57081                0               0         0.150217        -171.931                0               0
                       0.0348193        -60.0949                0               0         0.965595        -80.8879                0               0
                        0.150216        -171.931                0               0         0.209397           8.553                0               0
                          0.9656        -80.8898                0               0        0.0348553        -60.1366                0               0
76.845                  0.203663         6.65079                0               0         0.151665        -174.264                0               0
                       0.0334971        -64.7128                0               0         0.963835        -83.0791                0               0
                        0.151666        -174.263                0               0          0.20368         6.63475                0               0
                        0.963841        -83.0809                0               0        0.0335383        -64.7635                0               0
76.89                   0.197537         4.82008                0               0         0.152982        -176.706                0               0
                       0.0320377        -69.5035                0               0         0.961033         -85.251                0               0
                        0.152983        -176.705                0               0         0.197552         4.80572                0               0
                        0.961041        -85.2528                0               0         0.032085        -69.5598                0               0
76.935                  0.191076         3.08273                0               0         0.154199        -179.234                0               0
                       0.0304745        -74.4965                0               0         0.957151        -87.4034                0               0
                        0.154202        -179.233                0               0         0.191089         3.07005                0               0
                         0.95716        -87.4053                0               0        0.0305274        -74.5542                0               0
76.98                   0.184361         1.44562                0               0         0.155326         178.175                0               0
                       0.0288404        -79.7125                0               0         0.952217        -89.5352                0               0
                        0.155329         178.176                0               0         0.184375         1.43474                0               0
                        0.952228         -89.537                0               0        0.0288976        -79.7678                0               0
77.025                  0.177472      -0.0828094                0               0         0.156356         175.541                0               0
                       0.0271661        -85.1704                0               0         0.946323        -91.6438                0               0
                        0.156357         175.542                0               0         0.177488      -0.0917345                0               0
                        0.946335        -91.6456                0               0        0.0272262        -85.2196                0               0
77.07                   0.170485        -1.49388                0               0         0.157274         172.879                0               0
                       0.0254802        -90.8912                0               0         0.939604        -93.7262                0               0
                        0.157276          172.88                0               0         0.170502         -1.5007                0               0
                        0.939616        -93.7281                0               0        0.0255415        -90.9311                0               0
77.115                  0.163463        -2.77957                0               0          0.15807         170.203                0               0
                       0.0238094        -96.9019                0               0         0.932224        -95.7793                0               0
                        0.158071         170.204                0               0         0.163484        -2.78414                0               0
                        0.932237        -95.7812                0               0        0.0238705        -96.9293                0               0
77.16                   0.156465        -3.93291                0               0          0.15873         167.522                0               0
                       0.0221795        -103.236                0               0          0.92436        -97.8002                0               0
                        0.158731         167.523                0               0         0.156489        -3.93513                0               0
                        0.924372        -97.8021                0               0        0.0222392        -103.248                0               0
77.205                  0.149538        -4.94813                0               0          0.15925         164.847                0               0