! TOUCHSTONE file generated by CST MICROWAVE STUDIO
! Date and time: Mon Jun 21 17:07:22 2021
! Project name: HIPS_d_sweep.cst
! Parameters = {a=0.735; b=0.393; d=23.6884; fmax=120; fmin=75; phi=0; theta=0}
! Header version: 2018
! Port assignment regex: !\s*Touchstone port\s*([0-9]+)\s*=\s*(CST MWS port|CST DS port)\s*([0-9]+|Zmin|Zmax)\s*\(\"(.*)\"\)(\s*mode\s*([0-9]+))?.*
! Touchstone port assignment:
! Touchstone port 1 = CST MWS port Zmin ("") mode 1
! Touchstone port 2 = CST MWS port Zmin ("") mode 2
! Touchstone port 3 = CST MWS port Zmax ("") mode 1
! Touchstone port 4 = CST MWS port Zmax ("") mode 2
! S-Parameters are not renormalized. Unphysical impedance of 0 will be written to the file.
# GHz S MA R 0
75                      0.110646        -20.0338                0               0        0.0317232        -14.3825                0               0
                       0.0309984        -14.1134                0               0         0.992865        -110.553                0               0
                       0.0317226        -14.3844                0               0         0.110682        -20.0166                0               0
                        0.992871        -110.554                0               0        0.0310069          -13.96                0               0
75.045                  0.108132        -20.6495                0               0        0.0357344        -15.8004                0               0
                       0.0316547        -14.2995                0               0         0.992985         -111.26                0               0
                       0.0357337        -15.8022                0               0         0.108167        -20.6322                0               0
                        0.992991         -111.26                0               0        0.0316638        -14.1488                0               0
75.09                   0.105256         -21.357                0               0        0.0393354        -17.1542                0               0
                       0.0321892        -14.7102                0               0         0.993141        -112.058                0               0
                       0.0393347         -17.156                0               0         0.105291        -21.3397                0               0
                        0.993147        -112.058                0               0        0.0321989        -14.5616                0               0
75.135                  0.102014        -22.1566                0               0        0.0425252         -18.499                0               0
                        0.032599        -15.3376                0               0         0.993334        -112.947                0               0
                       0.0425246        -18.5007                0               0         0.102049        -22.1391                0               0
                         0.99334        -112.948                0               0         0.032609        -15.1903                0               0
75.18                  0.0984036        -23.0476                0               0        0.0453056        -19.8673                0               0
                       0.0328818        -16.1728                0               0         0.993565        -113.927                0               0
                       0.0453049         -19.869                0               0        0.0984384        -23.0301                0               0
                        0.993571        -113.928                0               0         0.032892        -16.0262                0               0
75.225                 0.0944213        -24.0291                0               0          0.04768        -21.2797                0               0
                       0.0330358        -17.2066                0               0         0.993832        -114.997                0               0
                       0.0476793        -21.2814                0               0        0.0944561        -24.0115                0               0
                        0.993838        -114.998                0               0        0.0330461        -17.0601                0               0
75.27                  0.0900652        -25.0994                0               0        0.0496537        -22.7493                0               0
                         0.03306        -18.4298                0               0         0.994135        -116.156                0               0
                       0.0496531         -22.751                0               0        0.0900999        -25.0816                0               0
                        0.994141        -116.157                0               0        0.0330702        -18.2829                0               0
75.315                 0.0853342        -26.2559                0               0        0.0512334        -24.2844                0               0
                       0.0329536        -19.8335                0               0         0.994472        -117.402                0               0
                       0.0512329        -24.2862                0               0        0.0853689        -26.2379                0               0
                        0.994478        -117.403                0               0        0.0329636        -19.6855                0               0
75.36                  0.0802286        -27.4956                0               0         0.052427        -25.8905                0               0
                       0.0327162        -21.4091                0               0          0.99484        -118.734                0               0
                       0.0524265        -25.8923                0               0        0.0802632        -27.4773                0               0
                        0.994845        -118.735                0               0        0.0327259        -21.2594                0               0
75.405                 0.0747501        -28.8142                0               0        0.0532434        -27.5707                0               0
                       0.0323476        -23.1484                0               0         0.995234         -120.15                0               0
                        0.053243        -27.5724                0               0        0.0747847        -28.7957                0               0
                        0.995239         -120.15                0               0         0.032357        -22.9965                0               0
75.45                  0.0689024        -30.2065                0               0        0.0536924        -29.3262                0               0
                       0.0318481        -25.0439                0               0         0.995649        -121.645                0               0
                       0.0536921        -29.3279                0               0         0.068937        -30.1877                0               0
                        0.995654        -121.646                0               0         0.031857        -24.8891                0               0
75.495                 0.0626909        -31.6654                0               0        0.0537849        -31.1571                0               0
                       0.0312181        -27.0887                0               0         0.996078        -123.219                0               0
                       0.0537847        -31.1588                0               0        0.0627256        -31.6462                0               0
                        0.996083         -123.22                0               0        0.0312263        -26.9303                0               0
75.54                  0.0561237        -33.1809                0               0        0.0535326        -33.0623                0               0
                       0.0304584        -29.2762                0               0         0.996512        -124.868                0               0
                       0.0535325         -33.064                0               0        0.0561584        -33.1613                0               0
                        0.996517        -124.869                0               0        0.0304659        -29.1134                0               0
75.585                 0.0492109        -34.7386                0               0        0.0529484        -35.0398                0               0
                       0.0295702        -31.6005                0               0         0.996943        -126.588                0               0
                       0.0529485        -35.0414                0               0        0.0492458        -34.7184                0               0
                        0.996947        -126.589                0               0        0.0295769        -31.4324                0               0
75.63                  0.0419656        -36.3148                0               0        0.0520461        -37.0864                0               0
                       0.0285552        -34.0559                0               0          0.99736        -128.376                0               0
                       0.0520463        -37.0881                0               0        0.0420005        -36.2939                0               0
                        0.997364        -128.376                0               0         0.028561        -33.8815                0               0
75.675                 0.0344034        -37.8664                0               0        0.0508406        -39.1985                0               0
                       0.0274159        -36.6371                0               0         0.997753        -130.227                0               0
                       0.0508408        -39.2002                0               0        0.0344384        -37.8445                0               0
                        0.997756        -130.228                0               0        0.0274207        -36.4553                0               0
75.72                  0.0265433        -39.3004                0               0        0.0493479        -41.3714                0               0
                       0.0261556        -39.3394                0               0         0.998109        -132.139                0               0
                       0.0493483         -41.373                0               0        0.0265784        -39.2773                0               0
                        0.998113        -132.139                0               0        0.0261593        -39.1487                0               0
75.765                 0.0184082        -40.3587                0               0        0.0475854        -43.5996                0               0
                       0.0247783        -42.1584                0               0         0.998419        -134.105                0               0
                       0.0475859        -43.6013                0               0        0.0184435         -40.334                0               0
                        0.998421        -134.106                0               0        0.0247808        -41.9571                0               0
75.81                   0.010031        -39.9104                0               0        0.0455716         -45.877                0               0
                       0.0232895        -45.0904                0               0         0.998669        -136.123                0               0
                       0.0455723        -45.8787                0               0        0.0100664        -39.8871                0               0
                        0.998672        -136.124                0               0        0.0232908        -44.8765                0               0
75.855                0.00165646        -12.5536                0               0        0.0433262        -48.1966                0               0
                       0.0216958        -48.1333                0               0          0.99885        -138.188                0               0
                        0.043327        -48.1984                0               0       0.00168811        -13.0918                0               0
                        0.998852        -138.188                0               0        0.0216957        -47.9041                0               0
75.9                  0.00752772         123.267                0               0        0.0408702        -50.5506                0               0
                       0.0200052        -51.2868                0               0         0.998952        -140.294                0               0
                       0.0408712        -50.5525                0               0       0.00749328         123.214                0               0
                        0.998954        -140.295                0               0        0.0200036        -51.0389                0               0
75.945                 0.0164932          125.04                0               0        0.0382255        -52.9303                0               0
                       0.0182268        -54.5545                0               0         0.998967        -142.438                0               0
                       0.0382266        -52.9323                0               0        0.0164581         125.033                0               0
                        0.998969        -142.438                0               0        0.0182236        -54.2835                0               0
75.99                  0.0256199         124.016                0               0        0.0354149        -55.3259                0               0
                       0.0163711        -57.9464                0               0         0.998888        -144.614                0               0
                       0.0354161        -55.3281                0               0        0.0255847         124.019                0               0
                        0.998889        -144.615                0               0        0.0163663        -57.6462                0               0
76.035                 0.0348567         122.349                0               0         0.032462        -57.7262                0               0
                       0.0144499        -61.4838                0               0          0.99871        -146.819                0               0
                       0.0324633        -57.7287                0               0        0.0348214         122.356                0               0
                        0.998711        -146.819                0               0        0.0144433        -61.1458                0               0
76.08                  0.0441661         120.422                0               0        0.0293907        -60.1182                0               0
                       0.0124758         -65.209                0               0         0.998432        -149.047                0               0
                       0.0293921        -60.1211                0               0        0.0441306         120.431                0               0
                        0.998432        -149.047                0               0        0.0124672        -64.8207                0               0
76.125                  0.053512          118.36                0               0        0.0262252        -62.4857                0               0
                       0.0104624        -69.2064                0               0         0.998053        -151.294                0               0
                       0.0262267        -62.4892                0               0        0.0534765         118.371                0               0
                        0.998053        -151.294                0               0        0.0104514        -68.7478                0               0
76.17                  0.0628592         116.218                0               0        0.0229898        -64.8078                0               0
                      0.00842407        -73.6523                0               0         0.997576        -153.555                0               0
                       0.0229913        -64.8119                0               0        0.0628237          116.23                0               0
                        0.997576        -153.555                0               0       0.00841019          -73.09                0               0
76.215                 0.0721727         114.025                0               0         0.019708        -67.0538                0               0
                      0.00637732        -78.9614                0               0         0.997008        -155.826                0               0
                       0.0197096         -67.059                0               0        0.0721371         114.039                0               0
                        0.997008        -155.826                0               0       0.00635946        -78.2315                0               0
76.26                  0.0814184         111.801                0               0        0.0164034        -69.1747                0               0
                      0.00434498        -86.3283                0               0         0.996356        -158.102                0               0
                        0.016405        -69.1812                0               0        0.0813829         111.815                0               0
                        0.996355        -158.103                0               0       0.00432053        -85.2894                0               0
76.305                 0.0905635         109.558                0               0        0.0130986        -71.0784                0               0
                      0.00238492        -100.836                0               0          0.99563        -160.381                0               0
                       0.0131002        -71.0869                0               0        0.0905281         109.573                0               0
                        0.995629        -160.381                0               0       0.00234529        -99.1125                0               0
76.35                  0.0995763         107.306                0               0       0.00981607        -72.5602                0               0
                      0.00100275        -162.169                0               0          0.99484        -162.656                0               0
                      0.00981757         -72.572                0               0        0.0995411         107.322                0               0
                        0.994839        -162.656                0               0      0.000922242        -162.082                0               0
76.395                  0.108427         105.053                0               0       0.00657932        -73.0303                0               0
                      0.00213866         125.456                0               0         0.993997        -164.924                0               0
                      0.00658069        -73.0484                0               0         0.108392         105.069                0               0
                        0.993996        -164.924                0               0       0.00211157         123.439                0               0
76.44                   0.117087         102.806                0               0       0.00342399        -69.7833                0               0
                      0.00399913         109.126                0               0          0.99311        -167.181                0               0
                      0.00342505        -69.8195                0               0         0.117052         102.822                0               0
                        0.993109        -167.182                0               0       0.00399055         108.006                0               0
76.485                  0.125529         100.568                0               0      0.000745274        -12.5648                0               0
                      0.00589437         101.456                0               0         0.992183        -169.424                0               0
                     0.000743961        -12.7085                0               0         0.125494         100.584                0               0
                        0.992181        -169.424                0               0       0.00589304         100.702                0               0
76.53                   0.133728         98.3445                0               0       0.00287749         79.0464                0               0
                      0.00775907         96.1482                0               0         0.991213        -171.647                0               0
                       0.0028759         79.0738                0               0         0.133693         98.3614                0               0
                         0.99121        -171.648                0               0       0.00776184         95.5845                0               0
76.575                  0.141658         96.1378                0               0       0.00575084         83.6729                0               0
                      0.00957361         91.8107                0               0         0.990184        -173.849                0               0
                      0.00574962         83.6872                0               0         0.141624          96.155                0               0
                         0.99018         -173.85                0               0       0.00957919         91.3613                0               0
76.62                   0.149295         93.9489                0               0       0.00853597         83.4009                0               0
                       0.0113261         87.9655                0               0         0.989065        -176.025                0               0
                        0.008535         83.4097                0               0         0.149261         93.9664                0               0
                        0.989061        -176.026                0               0        0.0113338         87.5922                0               0
76.665                  0.156615         91.7769                0               0        0.0111994         81.8772                0               0
                       0.0130058         84.4022                0               0         0.987805        -178.174                0               0
                       0.0111986         81.8831                0               0         0.156582         91.7947                0               0
                        0.987801        -178.175                0               0        0.0130154          84.083                0               0
76.71                   0.163593          89.619                0               0         0.013729         79.7842                0               0
                       0.0146016         81.0109                0               0         0.986329         179.707                0               0
                       0.0137285         79.7883                0               0         0.163559         89.6372                0               0
                        0.986324         179.706                0               0        0.0146128          80.732                0               0
76.755                  0.170201         87.4705                0               0        0.0161194         77.3174                0               0
                       0.0161007         77.7255                0               0         0.984531         177.617                0               0
                        0.016119         77.3204                0               0         0.170168         87.4889                0               0
                        0.984527         177.617                0               0        0.0161134         77.4775                0               0
76.8                    0.176411         85.3248                0               0        0.0183708         74.5331                0               0
                       0.0174887         74.5006                0               0         0.982281         175.557                0               0
                       0.0183705         74.5355                0               0         0.176378         85.3434                0               0
                        0.982277         175.557                0               0        0.0175029         74.2772                0               0
76.845                  0.182192         83.1741                0               0        0.0204897         71.4369                0               0
                       0.0187504         71.3018                0               0         0.979424         173.524                0               0
                       0.0204894         71.4392                0               0         0.182159         83.1931                0               0
                        0.979419         173.524                0               0         0.018766         71.0982                0               0
76.89                   0.187509         81.0115                0               0        0.0224893         68.0172                0               0
                       0.0198709         68.1007                0               0         0.975791         171.516                0               0
                       0.0224888         68.0197                0               0         0.187477         81.0307                0               0
                        0.975787         171.516                0               0        0.0198879         67.9133                0               0
76.935                  0.192324         78.8324                0               0        0.0243886         64.2637                0               0
                       0.0208383         64.8738                0               0         0.971218         169.531                0               0
                        0.024388         64.2668                0               0         0.192293         78.8519                0               0
                        0.971214         169.531                0               0        0.0208566            64.7                0               0
76.98                   0.196598         76.6376                0               0        0.0262106         60.1801                0               0
                       0.0216462         61.6049                0               0          0.96557         167.569                0               0
                       0.0262098         60.1838                0               0         0.196569         76.6575                0               0
                        0.965566         167.569                0               0        0.0216659         61.4426                0               0
77.025                  0.200298         74.4355                0               0         0.027978         55.7929                0               0
                        0.022296          58.289                0               0         0.958775         165.633                0               0
                       0.0279769         55.7972                0               0          0.20027         74.4556                0               0
                        0.958772         165.632                0               0         0.022317         58.1365                0               0
77.07                   0.203407         72.2426                0               0        0.0297075         51.1549                0               0
                       0.0227968         54.9365                0               0         0.950865         163.729                0               0
                       0.0297061         51.1596                0               0          0.20338          72.263                0               0
                        0.950862         163.729                0               0        0.0228193         54.7925                0               0
77.115                  0.205936         70.0818                0               0        0.0314055         46.3432                0               0
                       0.0231644         51.5764                0               0         0.941999         161.868                0               0
                       0.0314039         46.3479                0               0          0.20591         70.1024                0               0
                        0.941997         161.868                0               0        0.0231883         51.4399                0               0
77.16                   0.207935         67.9774                0               0        0.0330654         41.4507                0               0
                       0.0234171         48.2529                0               0         0.932462         160.059                0               0
                       0.0330636         41.4551                0               0          0.20791         67.9981                0               0
                         0.93246         160.058                0               0        0.0234424         48.1231                0               0
77.205                  0.209486         65.9495                0               0        0.0346692         36.5756                0               0