! TOUCHSTONE file generated by CST MICROWAVE STUDIO
! Date and time: Mon Jun 21 17:06:19 2021
! Project name: HIPS_d_sweep.cst
! Parameters = {a=0.735; b=0.393; d=16.2513; fmax=120; fmin=75; phi=0; theta=0}
! Header version: 2018
! Port assignment regex: !\s*Touchstone port\s*([0-9]+)\s*=\s*(CST MWS port|CST DS port)\s*([0-9]+|Zmin|Zmax)\s*\(\"(.*)\"\)(\s*mode\s*([0-9]+))?.*
! Touchstone port assignment:
! Touchstone port 1 = CST MWS port Zmin ("") mode 1
! Touchstone port 2 = CST MWS port Zmin ("") mode 2
! Touchstone port 3 = CST MWS port Zmax ("") mode 1
! Touchstone port 4 = CST MWS port Zmax ("") mode 2
! S-Parameters are not renormalized. Unphysical impedance of 0 will be written to the file.
# GHz S MA R 0
75                     0.0667504         44.2673                0               0         0.499545         126.001                0               0
                        0.113325        -56.5888                0               0         0.856245         36.1928                0               0
                        0.499545         126.001                0               0        0.0667048         44.2091                0               0
                        0.856245         36.1966                0               0         0.113354        -56.6634                0               0
75.045                 0.0671818         44.7452                0               0         0.501936         125.447                0               0
                        0.113358        -57.5183                0               0         0.855291          35.693                0               0
                        0.501936         125.447                0               0        0.0671348         44.6873                0               0
                        0.855291         35.6967                0               0         0.113388        -57.5929                0               0
75.09                  0.0676177         45.3291                0               0         0.504022         124.843                0               0
                         0.11327        -58.5524                0               0         0.854293         35.1325                0               0
                        0.504021         124.842                0               0        0.0675693         45.2718                0               0
                        0.854293         35.1363                0               0         0.113301         -58.627                0               0
75.135                 0.0680611         46.0156                0               0         0.505805         124.185                0               0
                        0.113074        -59.6975                0               0         0.853292          34.511                0               0
                        0.505805         124.185                0               0         0.068011         45.9591                0               0
                        0.853292         34.5148                0               0         0.113107        -59.7721                0               0
75.18                   0.068517         46.8007                0               0         0.507294         123.473                0               0
                        0.112782        -60.9589                0               0         0.852325         33.8287                0               0
                        0.507294         123.473                0               0         0.068465          46.745                0               0
                        0.852326         33.8324                0               0         0.112816        -61.0336                0               0
75.225                 0.0689923         47.6799                0               0         0.508499         122.702                0               0
                        0.112406        -62.3408                0               0          0.85143         33.0858                0               0
                        0.508498         122.702                0               0        0.0689384         47.6254                0               0
                         0.85143         33.0896                0               0         0.112442        -62.4156                0               0
75.27                  0.0694961         48.6485                0               0         0.509433         121.872                0               0
                        0.111959        -63.8461                0               0         0.850638         32.2833                0               0
                        0.509432         121.872                0               0          0.06944         48.5952                0               0
                        0.850638         32.2871                0               0         0.111997         -63.921                0               0
75.315                 0.0700389          49.701                0               0          0.51011         120.982                0               0
                        0.111454        -65.4767                0               0         0.849976         31.4221                0               0
                         0.51011         120.982                0               0        0.0699805         49.6491                0               0
                        0.849976         31.4259                0               0         0.111494        -65.5518                0               0
75.36                  0.0706329         50.8309                0               0         0.510548         120.031                0               0
                        0.110901        -67.2335                0               0         0.849469         30.5037                0               0
                        0.510547         120.031                0               0        0.0705719         50.7807                0               0
                        0.849469         30.5075                0               0         0.110943        -67.3088                0               0
75.405                 0.0712916         52.0309                0               0          0.51076         119.019                0               0
                        0.110311        -69.1163                0               0         0.849134         29.5297                0               0
                         0.51076         119.019                0               0        0.0712279         51.9826                0               0
                        0.849135         29.5335                0               0         0.110355        -69.1919                0               0
75.45                  0.0720294         53.2925                0               0         0.510765         117.947                0               0
                        0.109691        -71.1243                0               0         0.848987          28.502                0               0
                        0.510764         117.947                0               0         0.071963         53.2463                0               0
                        0.848987         28.5058                0               0         0.109738        -71.2001                0               0
75.495                 0.0728618         54.6058                0               0         0.510575         116.817                0               0
                        0.109049        -73.2556                0               0         0.849035         27.4226                0               0
                        0.510575         116.817                0               0        0.0727925         54.5618                0               0
                        0.849035         27.4264                0               0         0.109099        -73.3317                0               0
75.54                  0.0738043         55.9593                0               0         0.510205         115.631                0               0
                        0.108391        -75.5079                0               0         0.849282         26.2939                0               0
                        0.510205         115.631                0               0        0.0737321         55.9179                0               0
                        0.849282         26.2977                0               0         0.108445        -75.5843                0               0
75.585                 0.0748726         57.3404                0               0         0.509667         114.391                0               0
                        0.107722        -77.8781                0               0         0.849726         25.1181                0               0
                        0.509667         114.391                0               0        0.0747974         57.3017                0               0
                        0.849726         25.1219                0               0         0.107779        -77.9547                0               0
75.63                  0.0760819         58.7347                0               0          0.50897           113.1                0               0
                        0.107044        -80.3626                0               0         0.850361         23.8977                0               0
                        0.508969           113.1                0               0        0.0760037         58.6989                0               0
                        0.850362         23.9015                0               0         0.107104        -80.4395                0               0
75.675                 0.0774463          60.127                0               0         0.508122         111.762                0               0
                        0.106359        -82.9573                0               0         0.851176         22.6353                0               0
                        0.508121         111.762                0               0        0.0773652         60.0941                0               0
                        0.851177         22.6391                0               0         0.106424        -83.0344                0               0
75.72                  0.0789786         61.5008                0               0         0.507128          110.38                0               0
                        0.105669        -85.6576                0               0         0.852157         21.3334                0               0
                        0.507127          110.38                0               0        0.0788945          61.471                0               0
                        0.852158         21.3373                0               0         0.105737        -85.7348                0               0
75.765                 0.0806895         62.8393                0               0         0.505993         108.958                0               0
                        0.104972        -88.4586                0               0         0.853283         19.9948                0               0
                        0.505992         108.958                0               0        0.0806026         62.8128                0               0
                        0.853284         19.9987                0               0         0.105045        -88.5358                0               0
75.81                  0.0825873         64.1258                0               0         0.504719         107.501                0               0
                        0.104269        -91.3548                0               0         0.854533         18.6221                0               0
                        0.504718         107.501                0               0        0.0824977         64.1026                0               0
                        0.854534          18.626                0               0         0.104347        -91.4321                0               0
75.855                 0.0846774         65.3439                0               0         0.503307         106.013                0               0
                        0.103558        -94.3405                0               0         0.855881         17.2179                0               0
                        0.503306         106.013                0               0        0.0845852         65.3239                0               0
                        0.855883         17.2218                0               0         0.103641        -94.4177                0               0
75.9                   0.0869621         66.4782                0               0         0.501757         104.498                0               0
                        0.102838        -97.4097                0               0           0.8573          15.785                0               0
                        0.501756         104.498                0               0        0.0868676         66.4614                0               0
                        0.857301         15.7889                0               0         0.102925        -97.4867                0               0
75.945                 0.0894403         67.5149                0               0         0.500069         102.961                0               0
                        0.102105        -100.556                0               0         0.858759          14.326                0               0
                        0.500068         102.962                0               0        0.0893435         67.5011                0               0
                         0.85876         14.3298                0               0         0.102198        -100.633                0               0
75.99                  0.0921073         68.4418                0               0         0.498243         101.407                0               0
                        0.101359        -103.773                0               0         0.860227         12.8435                0               0
                        0.498242         101.407                0               0        0.0920083          68.431                0               0
                        0.860229         12.8474                0               0         0.101457        -103.849                0               0
76.035                 0.0949547         69.2494                0               0         0.496278         99.8403                0               0
                        0.100597        -107.053                0               0         0.861673         11.3403                0               0
                        0.496277         99.8404                0               0        0.0948538         69.2413                0               0
                        0.861674         11.3442                0               0           0.1007        -107.129                0               0
76.08                  0.0979707           69.93                0               0         0.494175         98.2645                0               0
                       0.0998182         -110.39                0               0         0.863063         9.81889                0               0
                        0.494174         98.2646                0               0        0.0978681         69.9246                0               0
                        0.863065         9.82281                0               0        0.0999264        -110.465                0               0
76.125                  0.101141         70.4789                0               0         0.491936         96.6843                0               0
                       0.0990203        -113.776                0               0         0.864368         8.28203                0               0
                        0.491935         96.6843                0               0         0.101036         70.4759                0               0
                         0.86437         8.28596                0               0        0.0991339         -113.85                0               0
76.17                   0.104446         70.8934                0               0         0.489562         95.1036                0               0
                       0.0982028        -117.203                0               0         0.865555         6.73227                0               0
                        0.489561         95.1036                0               0          0.10434         70.8926                0               0
                        0.865557         6.73621                0               0        0.0983217        -117.276                0               0
76.215                  0.107867         71.1734                0               0         0.487058         93.5262                0               0
                       0.0973654        -120.665                0               0         0.866596         5.17221                0               0
                        0.487057         93.5263                0               0          0.10776         71.1747                0               0
                        0.866598         5.17615                0               0        0.0974896        -120.737                0               0
76.26                    0.11138         71.3208                0               0         0.484429         91.9558                0               0
                       0.0965084        -124.154                0               0         0.867463          3.6044                0               0
                        0.484428         91.9559                0               0         0.111272         71.3239                0               0
                        0.867465         3.60835                0               0        0.0966378        -124.225                0               0
76.305                  0.114961         71.3396                0               0         0.481681         90.3958                0               0
                       0.0956327        -127.663                0               0         0.868132         2.03137                0               0
                         0.48168         90.3958                0               0         0.114852         71.3443                0               0
                        0.868133         2.03532                0               0        0.0957671        -127.732                0               0
76.35                   0.118586         71.2351                0               0         0.478823         88.8491                0               0
                       0.0947396        -131.183                0               0         0.868581        0.455597                0               0
                        0.478822         88.8491                0               0         0.118476         71.2413                0               0
                        0.868581        0.459559                0               0         0.094879        -131.251                0               0
76.395                  0.122228         71.0142                0               0         0.475862         87.3185                0               0
                       0.0938313         -134.71                0               0          0.86879        -1.12049                0               0
                        0.475862         87.3186                0               0         0.122117         71.0217                0               0
                        0.868791        -1.11652                0               0        0.0939755        -134.775                0               0
76.44                   0.125862         70.6847                0               0         0.472811         85.8067                0               0
                       0.0929104        -138.235                0               0         0.868746        -2.69452                0               0
                         0.47281         85.8067                0               0          0.12575         70.6935                0               0
                        0.868746        -2.69054                0               0        0.0930591        -138.298                0               0
76.485                  0.129464         70.2553                0               0          0.46968         84.3158                0               0
                       0.0919799        -141.752                0               0         0.868435        -4.26421                0               0
                        0.469679         84.3158                0               0         0.129352         70.2651                0               0
                        0.868435        -4.26022                0               0         0.092133        -141.813                0               0
76.53                   0.133011         69.7352                0               0         0.466481         82.8477                0               0
                       0.0910432        -145.255                0               0         0.867852        -5.82736                0               0
                        0.466481         82.8477                0               0         0.132898         69.7459                0               0
                        0.867851        -5.82337                0               0        0.0912005        -145.313                0               0
76.575                   0.13648         69.1336                0               0         0.463227         81.4039                0               0
                       0.0901041        -148.739                0               0         0.866991         -7.3819                0               0
                        0.463227         81.4039                0               0         0.136366         69.1452                0               0
                         0.86699         -7.3779                0               0        0.0902654        -148.794                0               0
76.62                   0.139853         68.4601                0               0         0.459933          79.986                0               0
                       0.0891665        -152.198                0               0         0.865854        -8.92584                0               0
                        0.459932          79.986                0               0         0.139738         68.4724                0               0
                        0.865852        -8.92183                0               0        0.0893314        -152.251                0               0
76.665                  0.143112         67.7239                0               0          0.45661         78.5948                0               0
                       0.0882343        -155.627                0               0         0.864443        -10.4574                0               0
                         0.45661         78.5948                0               0         0.142997         67.7369                0               0
                        0.864441        -10.4533                0               0        0.0884027        -155.677                0               0
76.71                   0.146243          66.934                0               0         0.453274         77.2311                0               0
                       0.0873117        -159.023                0               0         0.862765        -11.9748                0               0
                        0.453274         77.2311                0               0         0.146127         66.9476                0               0
                        0.862763        -11.9707                0               0        0.0874833         -159.07                0               0
76.755                  0.149235          66.099                0               0         0.449937         75.8956                0               0
                       0.0864025        -162.382                0               0         0.860832        -13.4765                0               0
                        0.449937         75.8955                0               0         0.149118         66.1132                0               0
                         0.86083        -13.4725                0               0        0.0865771        -162.425                0               0
76.8                    0.152077         65.2269                0               0         0.446613         74.5883                0               0
                       0.0855106        -165.699                0               0         0.858656        -14.9612                0               0
                        0.446613         74.5882                0               0         0.151961         65.2417                0               0
                        0.858653        -14.9572                0               0         0.085688         -165.74                0               0
76.845                  0.154765         64.3253                0               0         0.443314         73.3093                0               0
                       0.0846398        -168.973                0               0         0.856252        -16.4278                0               0
                        0.443314         73.3092                0               0         0.154648         64.3405                0               0
                        0.856249        -16.4237                0               0        0.0848196         -169.01                0               0
76.89                   0.157293         63.4008                0               0         0.440054         72.0584                0               0
                       0.0837932        -172.201                0               0         0.853639        -17.8751                0               0
                        0.440054         72.0583                0               0         0.157175         63.4166                0               0
                        0.853636         -17.871                0               0        0.0839754        -172.235                0               0
76.935                   0.15966         62.4597                0               0         0.436843         70.8352                0               0
                       0.0829742        -175.382                0               0         0.850837        -19.3024                0               0
                        0.436843         70.8352                0               0         0.159542         62.4759                0               0
                        0.850833        -19.2983                0               0        0.0831584        -175.411                0               0
76.98                   0.161867         61.5074                0               0         0.433692         69.6392                0               0
                       0.0821856        -178.512                0               0         0.847866         -20.709                0               0
                        0.433692         69.6391                0               0         0.161749         61.5241                0               0
                        0.847862        -20.7049                0               0        0.0823716        -178.538                0               0
77.025                  0.163915         60.5488                0               0         0.430612         68.4695                0               0
                       0.0814298         178.408                0               0         0.844748        -22.0945                0               0
                        0.430612         68.4694                0               0         0.163797         60.5658                0               0
                        0.844744        -22.0903                0               0        0.0816174         178.386                0               0
77.07                   0.165808         59.5879                0               0         0.427611         67.3253                0               0
                       0.0807091         175.379                0               0         0.841506        -23.4586                0               0
                        0.427611         67.3252                0               0         0.165689         59.6054                0               0
                        0.841502        -23.4544                0               0        0.0808982         175.361                0               0
77.115                  0.167551         58.6285                0               0         0.424699         66.2055                0               0
                       0.0800255         172.403                0               0         0.838163        -24.8011                0               0
                        0.424699         66.2054                0               0         0.167432         58.6465                0               0
                        0.838159        -24.7969                0               0        0.0802158         172.388                0               0
77.16                   0.169149         57.6736                0               0         0.421881          65.109                0               0
                       0.0793805         169.478                0               0         0.834742        -26.1222                0               0
                        0.421881         65.1089                0               0         0.169029         57.6919                0               0
                        0.834737         -26.118                0               0        0.0795719         169.468                0               0
77.205                  0.170608         56.7256                0               0         0.419166         64.0345                0               0