! TOUCHSTONE file generated by CST MICROWAVE STUDIO
! Date and time: Mon Jun 21 17:06:36 2021
! Project name: HIPS_d_sweep.cst
! Parameters = {a=0.735; b=0.393; d=18.0101; fmax=120; fmin=75; phi=0; theta=0}
! Header version: 2018
! Port assignment regex: !\s*Touchstone port\s*([0-9]+)\s*=\s*(CST MWS port|CST DS port)\s*([0-9]+|Zmin|Zmax)\s*\(\"(.*)\"\)(\s*mode\s*([0-9]+))?.*
! Touchstone port assignment:
! Touchstone port 1 = CST MWS port Zmin ("") mode 1
! Touchstone port 2 = CST MWS port Zmin ("") mode 2
! Touchstone port 3 = CST MWS port Zmax ("") mode 1
! Touchstone port 4 = CST MWS port Zmax ("") mode 2
! S-Parameters are not renormalized. Unphysical impedance of 0 will be written to the file.
# GHz S MA R 0
75                      0.107753         84.6937                0               0         0.387427        -80.7182                0               0
                       0.0819121        -112.026                0               0          0.91191        -169.346                0               0
                        0.387428        -80.7182                0               0         0.107745          84.605                0               0
                         0.91191        -169.344                0               0         0.081925        -112.126                0               0
75.045                  0.110469         84.0652                0               0         0.387167        -82.0183                0               0
                       0.0815002        -115.106                0               0         0.913052        -170.575                0               0
                        0.387167        -82.0183                0               0         0.110465         83.9797                0               0
                        0.913053        -170.573                0               0        0.0815219        -115.203                0               0
75.09                   0.113217         83.4376                0               0         0.386844        -83.3189                0               0
                       0.0810868         -118.19                0               0          0.91412        -171.812                0               0
                        0.386844        -83.3188                0               0         0.113216         83.3551                0               0
                         0.91412         -171.81                0               0        0.0811171        -118.284                0               0
75.135                  0.115998          82.809                0               0          0.38646        -84.6194                0               0
                       0.0806753        -121.276                0               0          0.91511        -173.055                0               0
                        0.386459        -84.6193                0               0            0.116         82.7293                0               0
                        0.915111        -173.053                0               0        0.0807138        -121.368                0               0
75.18                    0.11881         82.1774                0               0         0.386015        -85.9198                0               0
                        0.080269        -124.364                0               0         0.916021        -174.306                0               0
                        0.386014        -85.9197                0               0         0.118814         82.1003                0               0
                        0.916022        -174.304                0               0        0.0803153        -124.453                0               0
75.225                  0.121652          81.541                0               0         0.385511        -87.2198                0               0
                       0.0798708        -127.453                0               0         0.916852        -175.563                0               0
                        0.385511        -87.2196                0               0         0.121658         81.4663                0               0
                        0.916853        -175.561                0               0        0.0799246         -127.54                0               0
75.27                   0.124524          80.898                0               0         0.384951         -88.519                0               0
                       0.0794838        -130.541                0               0         0.917601        -176.827                0               0
                         0.38495        -88.5188                0               0         0.124532         80.8257                0               0
                        0.917603        -176.825                0               0        0.0795445        -130.626                0               0
75.315                  0.127424          80.247                0               0         0.384334        -89.8174                0               0
                       0.0791104        -133.629                0               0         0.918268        -178.098                0               0
                        0.384333        -89.8171                0               0         0.127434         80.1768                0               0
                        0.918269        -178.096                0               0        0.0791778        -133.712                0               0
75.36                   0.130352         79.5862                0               0         0.383663        -91.1146                0               0
                       0.0787534        -136.715                0               0          0.91885        -179.375                0               0
                        0.383662        -91.1143                0               0         0.130362          79.518                0               0
                        0.918852        -179.373                0               0        0.0788269        -136.797                0               0
75.405                  0.133305         78.9142                0               0          0.38294        -92.4104                0               0
                        0.078415        -139.799                0               0         0.919347         179.342                0               0
                        0.382938        -92.4101                0               0         0.133316         78.8479                0               0
                        0.919349         179.344                0               0        0.0784942        -139.879                0               0
75.45                   0.136283         78.2297                0               0         0.382165        -93.7047                0               0
                       0.0780973         -142.88                0               0         0.919757         178.052                0               0
                        0.382164        -93.7044                0               0         0.136294          78.165                0               0
                        0.919759         178.054                0               0        0.0781818        -142.958                0               0
75.495                  0.139284         77.5311                0               0         0.381342        -94.9972                0               0
                       0.0778022        -145.958                0               0          0.92008         176.757                0               0
                        0.381341        -94.9969                0               0         0.139294         77.4681                0               0
                        0.920083         176.759                0               0        0.0778914        -146.034                0               0
75.54                   0.142304         76.8174                0               0         0.380472        -96.2878                0               0
                       0.0775313        -149.031                0               0         0.920316         175.456                0               0
                         0.38047        -96.2875                0               0         0.142314         76.7559                0               0
                        0.920318         175.458                0               0        0.0776249        -149.106                0               0
75.585                  0.145343         76.0871                0               0         0.379556        -97.5763                0               0
                       0.0772861        -152.099                0               0         0.920462         174.149                0               0
                        0.379555        -97.5759                0               0         0.145352         76.0271                0               0
                        0.920464         174.151                0               0        0.0773837        -152.172                0               0
75.63                   0.148396         75.3393                0               0         0.378597        -98.8625                0               0
                       0.0770679        -155.162                0               0         0.920519         172.837                0               0
                        0.378596        -98.8621                0               0         0.148404         75.2807                0               0
                        0.920522         172.839                0               0        0.0771689        -155.234                0               0
75.675                  0.151462         74.5729                0               0         0.377597        -100.146                0               0
                       0.0768777        -158.218                0               0         0.920487          171.52                0               0
                        0.377595        -100.146                0               0         0.151469         74.5156                0               0
                        0.920489         171.522                0               0        0.0769818        -158.289                0               0
75.72                   0.154536         73.7867                0               0         0.376557        -101.427                0               0
                       0.0767162        -161.268                0               0         0.920364         170.198                0               0
                        0.376556        -101.427                0               0         0.154541         73.7307                0               0
                        0.920367           170.2                0               0        0.0768229        -161.337                0               0
75.765                  0.157615           72.98                0               0          0.37548        -102.706                0               0
                       0.0765842         -164.31                0               0         0.920151         168.871                0               0
                        0.375479        -102.706                0               0         0.157618         72.9251                0               0
                        0.920154         168.873                0               0        0.0766931        -164.378                0               0
75.81                   0.160694         72.1518                0               0         0.374367        -103.981                0               0
                        0.076482        -167.345                0               0         0.919848         167.539                0               0
                        0.374367        -103.981                0               0         0.160694         72.0981                0               0
                        0.919851         167.541                0               0        0.0765928        -167.411                0               0
75.855                  0.163769         71.3013                0               0         0.373222        -105.254                0               0
                       0.0764098        -170.371                0               0         0.919455         166.203                0               0
                        0.373221        -105.254                0               0         0.163767         71.2488                0               0
                        0.919458         166.205                0               0         0.076522        -170.436                0               0
75.9                    0.166835         70.4279                0               0         0.372045        -106.524                0               0
                       0.0763677        -173.389                0               0         0.918972         164.863                0               0
                        0.372044        -106.523                0               0         0.166829         70.3766                0               0
                        0.918974         164.865                0               0         0.076481        -173.452                0               0
75.945                  0.169885          69.531                0               0         0.370839         -107.79                0               0
                       0.0763555        -176.396                0               0           0.9184         163.519                0               0
                        0.370838         -107.79                0               0         0.169876         69.4808                0               0
                        0.918402         163.521                0               0        0.0764696        -176.458                0               0
75.99                   0.172913         68.6101                0               0         0.369605        -109.054                0               0
                       0.0763729        -179.394                0               0         0.917738          162.17                0               0
                        0.369605        -109.053                0               0         0.172901          68.561                0               0
                         0.91774         162.172                0               0        0.0764875        -179.455                0               0
76.035                  0.175914         67.6647                0               0         0.368346        -110.313                0               0
                       0.0764195         177.618                0               0         0.916988         160.819                0               0
                        0.368346        -110.313                0               0         0.175898         67.6167                0               0
                         0.91699         160.821                0               0        0.0765341         177.559                0               0
76.08                   0.178879         66.6946                0               0         0.367064         -111.57                0               0
                       0.0764945         174.641                0               0         0.916151         159.464                0               0
                        0.367064         -111.57                0               0          0.17886         66.6478                0               0
                        0.916152         159.466                0               0        0.0766089         174.584                0               0
76.125                  0.181801         65.6997                0               0         0.365761        -112.823                0               0
                       0.0765971         171.676                0               0         0.915227         158.105                0               0
                        0.365761        -112.823                0               0         0.181778          65.654                0               0
                        0.915228         158.107                0               0         0.076711          171.62                0               0
76.17                   0.184672         64.6798                0               0         0.364438        -114.073                0               0
                       0.0767265         168.722                0               0         0.914217         156.744                0               0
                        0.364438        -114.073                0               0         0.184645         64.6353                0               0
                        0.914218         156.746                0               0        0.0768396         168.668                0               0
76.215                  0.187484         63.6352                0               0         0.363098        -115.319                0               0
                       0.0768814         165.779                0               0         0.913123          155.38                0               0
                        0.363098        -115.319                0               0         0.187452         63.5919                0               0
                        0.913124         155.382                0               0        0.0769935         165.728                0               0
76.26                   0.190226          62.566                0               0         0.361741        -116.562                0               0
                       0.0770607         162.849                0               0         0.911945         154.013                0               0
                        0.361742        -116.562                0               0         0.190191         62.5239                0               0
                        0.911946         154.015                0               0        0.0771715         162.799                0               0
76.305                  0.192891         61.4727                0               0         0.360372        -117.801                0               0
                        0.077263         159.932                0               0         0.910687         152.645                0               0
                        0.360372        -117.801                0               0         0.192852         61.4318                0               0
                        0.910687         152.647                0               0        0.0773724         159.884                0               0
76.35                   0.195469         60.3558                0               0          0.35899        -119.037                0               0
                       0.0774868         157.027                0               0         0.909348         151.274                0               0
                         0.35899        -119.037                0               0         0.195425         60.3162                0               0
                        0.909348         151.275                0               0        0.0775945         156.981                0               0
76.395                  0.197949          59.216                0               0         0.357597        -120.269                0               0
                       0.0777306         154.136                0               0          0.90793         149.901                0               0
                        0.357598        -120.269                0               0         0.197901         59.1777                0               0
                         0.90793         149.903                0               0        0.0778364         154.092                0               0
76.44                   0.200322         58.0542                0               0         0.356196        -121.498                0               0
                       0.0779926         151.257                0               0         0.906436         148.526                0               0
                        0.356197        -121.498                0               0          0.20027         58.0172                0               0
                        0.906436         148.528                0               0        0.0780963         151.216                0               0
76.485                  0.202578         56.8715                0               0         0.354788        -122.723                0               0
                       0.0782711         148.392                0               0         0.904868          147.15                0               0
                        0.354789        -122.723                0               0         0.202522         56.8358                0               0
                        0.904867         147.152                0               0        0.0783726         148.353                0               0
76.53                   0.204708          55.669                0               0         0.353375        -123.944                0               0
                       0.0785642         145.541                0               0         0.903227         145.772                0               0
                        0.353375        -123.945                0               0         0.204648         55.6348                0               0
                        0.903226         145.774                0               0        0.0786633         145.504                0               0
76.575                  0.206701         54.4482                0               0         0.351958        -125.163                0               0
                       0.0788699         142.704                0               0         0.901515         144.394                0               0
                        0.351958        -125.163                0               0         0.206638         54.4153                0               0
                        0.901514         144.396                0               0        0.0789666         142.669                0               0
76.62                   0.208549         53.2105                0               0         0.350538        -126.377                0               0
                       0.0791862          139.88                0               0         0.899735         143.014                0               0
                        0.350539        -126.377                0               0         0.208482         53.1791                0               0
                        0.899733         143.016                0               0        0.0792804         139.848                0               0
76.665                  0.210242         51.9577                0               0         0.349118        -127.589                0               0
                       0.0795111         137.071                0               0         0.897889         141.634                0               0
                        0.349119        -127.589                0               0         0.210173         51.9278                0               0
                        0.897887         141.636                0               0        0.0796027         137.041                0               0
76.71                   0.211774         50.6916                0               0         0.347698        -128.796                0               0
                       0.0798425         134.276                0               0         0.895979         140.253                0               0
                        0.347699        -128.797                0               0         0.211702         50.6631                0               0
                        0.895977         140.255                0               0        0.0799314         134.248                0               0
76.755                  0.213136         49.4142                0               0          0.34628        -130.001                0               0
                       0.0801781         131.496                0               0         0.894008         138.872                0               0
                        0.346281        -130.001                0               0         0.213061         49.3872                0               0
                        0.894006         138.874                0               0        0.0802643         131.471                0               0
76.8                    0.214321         48.1275                0               0         0.344866        -131.202                0               0
                       0.0805159          128.73                0               0         0.891979         137.491                0               0
                        0.344867        -131.203                0               0         0.214245          48.102                0               0
                        0.891976         137.493                0               0        0.0805993         128.708                0               0
76.845                  0.215325         46.8338                0               0         0.343456        -132.401                0               0
                       0.0808536         125.979                0               0         0.889893          136.11                0               0
                        0.343457        -132.401                0               0         0.215247         46.8098                0               0
                         0.88989         136.112                0               0        0.0809343         125.959                0               0
76.89                   0.216143         45.5353                0               0         0.342051        -133.596                0               0
                        0.081189         123.244                0               0         0.887754         134.729                0               0
                        0.342052        -133.596                0               0         0.216064         45.5128                0               0
                         0.88775         134.731                0               0         0.081267         123.227                0               0
76.935                  0.216772         44.2344                0               0         0.340654        -134.787                0               0
                         0.08152         120.523                0               0         0.885564         133.349                0               0
                        0.340655        -134.788                0               0         0.216691         44.2134                0               0
                         0.88556          133.35                0               0        0.0815954         120.509                0               0
76.98                   0.217208         42.9334                0               0         0.339265        -135.976                0               0
                       0.0818445         117.819                0               0         0.883326         131.969                0               0
                        0.339266        -135.977                0               0         0.217127         42.9139                0               0
                        0.883322          131.97                0               0        0.0819172         117.807                0               0
77.025                  0.217452         41.6348                0               0         0.337884        -137.162                0               0
                       0.0821603          115.13                0               0         0.881043         130.589                0               0
                        0.337886        -137.163                0               0         0.217371         41.6167                0               0
                        0.881039         130.591                0               0        0.0822305         115.121                0               0
77.07                   0.217504         40.3409                0               0         0.336514        -138.346                0               0
                       0.0824654         112.458                0               0         0.878718         129.211                0               0
                        0.336516        -138.346                0               0         0.217423         40.3242                0               0
                        0.878713         129.213                0               0        0.0825331         112.451                0               0
77.115                  0.217365         39.0542                0               0         0.335155        -139.526                0               0
                       0.0827578         109.802                0               0         0.876352         127.834                0               0
                        0.335157        -139.527                0               0         0.217284         39.0388                0               0
                        0.876348         127.835                0               0        0.0828232         109.798                0               0
77.16                   0.217038         37.7769                0               0         0.333809        -140.704                0               0
                       0.0830357         107.162                0               0         0.873951         126.457                0               0
                         0.33381        -140.704                0               0         0.216958         37.7629                0               0
                        0.873945         126.459                0               0        0.0830989         107.162                0               0
77.205                  0.216526         36.5113                0               0         0.332475        -141.879                0               0