! TOUCHSTONE file generated by CST MICROWAVE STUDIO
! Date and time: Mon Jun 21 17:06:42 2021
! Project name: HIPS_d_sweep.cst
! Parameters = {a=0.735; b=0.393; d=18.7136; fmax=120; fmin=75; phi=0; theta=0}
! Header version: 2018
! Port assignment regex: !\s*Touchstone port\s*([0-9]+)\s*=\s*(CST MWS port|CST DS port)\s*([0-9]+|Zmin|Zmax)\s*\(\"(.*)\"\)(\s*mode\s*([0-9]+))?.*
! Touchstone port assignment:
! Touchstone port 1 = CST MWS port Zmin ("") mode 1
! Touchstone port 2 = CST MWS port Zmin ("") mode 2
! Touchstone port 3 = CST MWS port Zmax ("") mode 1
! Touchstone port 4 = CST MWS port Zmax ("") mode 2
! S-Parameters are not renormalized. Unphysical impedance of 0 will be written to the file.
# GHz S MA R 0
75                       0.20419         25.5753                0               0         0.331846        -158.368                0               0
                       0.0962049         69.1727                0               0         0.915932         108.954                0               0
                        0.331844        -158.369                0               0         0.204263         25.5758                0               0
                        0.915931         108.955                0               0         0.096025         69.0861                0               0
75.045                  0.202837         25.1984                0               0         0.334952        -158.941                0               0
                       0.0968183         68.4147                0               0         0.915119         108.393                0               0
                         0.33495        -158.941                0               0         0.202911         25.1993                0               0
                        0.915117         108.394                0               0        0.0966375         68.3282                0               0
75.09                   0.201438         24.7551                0               0         0.337783        -159.577                0               0
                       0.0974074         67.5153                0               0         0.914343         107.761                0               0
                        0.337781        -159.578                0               0         0.201513         24.7567                0               0
                        0.914342         107.762                0               0        0.0972258         67.4287                0               0
75.135                  0.199989         24.2479                0               0         0.340345        -160.278                0               0
                       0.0979753         66.4769                0               0         0.913631         107.058                0               0
                        0.340343        -160.278                0               0         0.200066         24.2501                0               0
                         0.91363         107.059                0               0         0.097793         66.3902                0               0
75.18                   0.198486         23.6789                0               0         0.342645        -161.044                0               0
                       0.0985245         65.3028                0               0         0.913002         106.285                0               0
                        0.342643        -161.044                0               0         0.198565         23.6818                0               0
                        0.913001         106.286                0               0        0.0983415         65.2157                0               0
75.225                  0.196922         23.0501                0               0         0.344689        -161.875                0               0
                       0.0990562         63.9963                0               0          0.91247         105.445                0               0
                        0.344687        -161.875                0               0         0.197002         23.0539                0               0
                        0.912469         105.446                0               0        0.0988726         63.9087                0               0
75.27                    0.19529         22.3636                0               0         0.346488        -162.771                0               0
                       0.0995708         62.5611                0               0         0.912046         104.537                0               0
                        0.346486        -162.772                0               0         0.195372         22.3682                0               0
                        0.912045         104.538                0               0        0.0993867          62.473                0               0
75.315                  0.193582         21.6211                0               0         0.348047        -163.732                0               0
                        0.100068         61.0015                0               0         0.911736         103.564                0               0
                        0.348045        -163.733                0               0         0.193665         21.6267                0               0
                        0.911734         103.565                0               0        0.0998833         60.9127                0               0
75.36                   0.191789         20.8247                0               0         0.349378        -164.757                0               0
                        0.100546         59.3218                0               0         0.911542         102.527                0               0
                        0.349376        -164.757                0               0         0.191873         20.8314                0               0
                         0.91154         102.528                0               0         0.100361         59.2322                0               0
75.405                  0.189901         19.9762                0               0         0.350488        -165.843                0               0
                        0.101004         57.5267                0               0         0.911464         101.429                0               0
                        0.350486        -165.844                0               0         0.189986         19.9841                0               0
                        0.911462          101.43                0               0         0.100819         57.4362                0               0
75.45                   0.187908         19.0777                0               0         0.351386        -166.991                0               0
                         0.10144         55.6209                0               0         0.911499          100.27                0               0
                        0.351384        -166.991                0               0         0.187995         19.0869                0               0
                        0.911498         100.271                0               0         0.101254         55.5295                0               0
75.495                    0.1858         18.1314                0               0         0.352081        -168.197                0               0
                        0.101849         53.6097                0               0         0.911643         99.0542                0               0
                         0.35208        -168.197                0               0         0.185888         18.1419                0               0
                        0.911642         99.0553                0               0         0.101663         53.5172                0               0
75.54                   0.183567         17.1396                0               0         0.352583         -169.46                0               0
                        0.102229         51.4981                0               0         0.911889         97.7829                0               0
                        0.352581         -169.46                0               0         0.183657         17.1515                0               0
                        0.911888          97.784                0               0         0.102043         51.4044                0               0
75.585                    0.1812         16.1047                0               0         0.352898        -170.778                0               0
                        0.102577         49.2915                0               0         0.912231         96.4587                0               0
                        0.352897        -170.778                0               0         0.181292         16.1183                0               0
                        0.912229         96.4598                0               0         0.102391         49.1966                0               0
75.63                   0.178689         15.0297                0               0         0.353038        -172.149                0               0
                         0.10289         46.9955                0               0         0.912661         95.0842                0               0
                        0.353036        -172.149                0               0         0.178782         15.0449                0               0
                        0.912659         95.0853                0               0         0.102703         46.8992                0               0
75.675                  0.176026         13.9175                0               0         0.353009         -173.57                0               0
                        0.103164         44.6156                0               0         0.913173          93.662                0               0
                        0.353008         -173.57                0               0         0.176121         13.9345                0               0
                        0.913171         93.6631                0               0         0.102977         44.5178                0               0
75.72                   0.173203         12.7714                0               0         0.352821         -175.04                0               0
                        0.103395         42.1574                0               0          0.91376          92.195                0               0
                         0.35282         -175.04                0               0         0.173299         12.7903                0               0
                        0.913759         92.1961                0               0         0.103208          42.058                0               0
75.765                  0.170213         11.5952                0               0         0.352483        -176.554                0               0
                        0.103581         39.6267                0               0          0.91442         90.6861                0               0
                        0.352483        -176.555                0               0         0.170311         11.6162                0               0
                        0.914418         90.6873                0               0         0.103395         39.5256                0               0
75.81                   0.167051         10.3928                0               0         0.352005        -178.113                0               0
                        0.103719         37.0291                0               0         0.915147         89.1384                0               0
                        0.352004        -178.113                0               0         0.167152          10.416                0               0
                        0.915146         89.1396                0               0         0.103533         36.9262                0               0
75.855                  0.163714          9.1686                0               0         0.351395        -179.711                0               0
                        0.103806         34.3703                0               0         0.915941          87.555                0               0
                        0.351395        -179.712                0               0         0.163816         9.19419                0               0
                         0.91594         87.5563                0               0         0.103621         34.2655                0               0
75.9                    0.160199         7.92731                0               0         0.350663         178.651                0               0
                        0.103842         31.6561                0               0           0.9168         85.9391                0               0
                        0.350664         178.651                0               0         0.160303         7.95542                0               0
                        0.916799         85.9404                0               0         0.103657         31.5493                0               0
75.945                  0.156504         6.67392                0               0          0.34982         176.979                0               0
                        0.103823         28.8918                0               0         0.917724         84.2939                0               0
                        0.349821         176.979                0               0         0.156611         6.70474                0               0
                        0.917724         84.2952                0               0          0.10364         28.7829                0               0
75.99                   0.152633         5.41381                0               0         0.348875         175.273                0               0
                        0.103749         26.0829                0               0         0.918714         82.6227                0               0
                        0.348876         175.273                0               0         0.152741         5.44752                0               0
                        0.918714          82.624                0               0         0.103567         25.9718                0               0
76.035                  0.148585         4.15266                0               0         0.347839         173.537                0               0
                        0.103619         23.2347                0               0          0.91977         80.9287                0               0
                        0.347839         173.537                0               0         0.148696         4.18946                0               0
                        0.919769           80.93                0               0         0.103438         23.1213                0               0
76.08                   0.144367         2.89649                0               0         0.346719         171.773                0               0
                        0.103433         20.3524                0               0         0.920888         79.2152                0               0
                         0.34672         171.773                0               0          0.14448         2.93659                0               0
                        0.920887         79.2165                0               0         0.103252         20.2366                0               0
76.125                  0.139982         1.65164                0               0         0.345527         169.986                0               0
                        0.103188         17.4408                0               0         0.922063         77.4853                0               0
                        0.345527         169.986                0               0         0.140098          1.6953                0               0
                        0.922063         77.4866                0               0         0.103009         17.3225                0               0
76.17                   0.135438        0.424886                0               0         0.344269         168.177                0               0
                        0.102885         14.5046                0               0         0.923287          75.742                0               0
                        0.344269         168.177                0               0         0.135557        0.472347                0               0
                        0.923287         75.7434                0               0         0.102708         14.3838                0               0
76.215                  0.130741        -0.77657                0               0         0.342952          166.35                0               0
                        0.102523         11.5484                0               0         0.924545         73.9884                0               0
                        0.342952          166.35                0               0         0.130863       -0.725016                0               0
                        0.924544         73.9898                0               0         0.102348         11.4249                0               0
76.26                   0.125899         -1.9449                0               0         0.341581          164.51                0               0
                        0.102101         8.57648                0               0         0.925814          72.227                0               0
                        0.341581          164.51                0               0         0.126024        -1.88894                0               0
                        0.925813         72.2284                0               0         0.101928          8.4502                0               0
76.305                   0.12092        -3.07148                0               0         0.340157          162.66                0               0
                        0.101617         5.59288                0               0         0.927065         70.4605                0               0
                        0.340157          162.66                0               0         0.121048        -3.01075                0               0
                        0.927064          70.462                0               0         0.101446         5.46373                0               0
76.35                   0.115812         -4.1466                0               0         0.338682         160.805                0               0
                        0.101069         2.60146                0               0         0.928262         68.6911                0               0
                        0.338682         160.805                0               0         0.115943        -4.08072                0               0
                        0.928261         68.6925                0               0         0.100901         2.46933                0               0
76.395                  0.110582        -5.15912                0               0         0.337149         158.949                0               0
                        0.100456       -0.394148                0               0         0.929355         66.9205                0               0
                        0.337149         158.949                0               0         0.110717        -5.08764                0               0
                        0.929355          66.922                0               0          0.10029       -0.529374                0               0
76.44                   0.105238        -6.09601                0               0         0.335551         157.097                0               0
                       0.0997735        -3.39057                0               0         0.930286         65.1503                0               0
                        0.335551         157.097                0               0         0.105377        -6.01842                0               0
                        0.930288         65.1518                0               0          0.09961        -3.52904                0               0
76.485                 0.0997897         -6.9419                0               0         0.333875         155.254                0               0
                       0.0990182        -6.38475                0               0         0.930983         63.3813                0               0
                        0.333875         155.254                0               0        0.0999335        -6.85761                0               0
                        0.930989         63.3828                0               0        0.0988576        -6.52661                0               0
76.53                  0.0942464        -7.67868                0               0           0.3321         153.426                0               0
                       0.0981856        -9.37408                0               0         0.931356         61.6132                0               0
                        0.332101         153.426                0               0        0.0943952        -7.58705                0               0
                        0.931366         61.6148                0               0        0.0980279        -9.51952                0               0
76.575                 0.0886221        -8.28551                0               0         0.330197         151.619                0               0
                         0.09727        -12.3567                0               0         0.931278         59.8441                0               0
                        0.330199         151.618                0               0        0.0887763        -8.18578                0               0
                        0.931298         59.8459                0               0        0.0971155         -12.506                0               0
76.62                  0.0829384        -8.73948                0               0         0.328114         149.841                0               0
                       0.0962646        -15.3325                0               0         0.930553         58.0676                0               0
                        0.328117          149.84                0               0        0.0830986        -8.63085                0               0
                        0.930589         58.0697                0               0        0.0961135        -15.4859                0               0
76.665                  0.077234        -9.01678                0               0         0.325749         148.104                0               0
                       0.0951601        -18.3051                0               0         0.928803         56.2631                0               0
                        0.325755         148.101                0               0        0.0774006        -8.89839                0               0
                        0.928868         56.2661                0               0        0.0950126        -18.4631                0               0
76.71                  0.0715834        -9.08967                0               0         0.322821         146.433                0               0
                       0.0939438        -21.2892                0               0         0.925099         54.3467                0               0
                        0.322834         146.428                0               0        0.0717567        -8.96087                0               0
                        0.925234         54.3533                0               0        0.0938008        -21.4525                0               0
76.755                 0.0661211        -8.89854                0               0         0.318023         144.923                0               0
                       0.0926075        -24.3368                0               0         0.918987         51.6855                0               0
                        0.318066         144.908                0               0        0.0663015        -8.75946                0               0
                        0.919186         51.7233                0               0        0.0924714        -24.5068                0               0
76.8                   0.0610148        -8.26375                0               0         0.270805         139.621                0               0
                       0.0913159        -27.6485                0               0         0.963625         50.4338                0               0
                        0.274798         139.972                0               0        0.0612037        -8.11622                0               0
                        0.963543         50.3957                0               0        0.0911977        -27.8246                0               0
76.845                 0.0562982        -6.83109                0               0         0.324801         140.345                0               0
                       0.0917372        -30.8371                0               0         0.944713         49.7478                0               0
                        0.324804         140.338                0               0        0.0564986        -6.67858                0               0
                         0.94475         49.7476                0               0        0.0916157        -30.9961                0               0
76.89                  0.0518124        -4.30579                0               0         0.319381         139.147                0               0
                       0.0904745        -32.5296                0               0         0.936805         48.1288                0               0
                        0.319381         139.147                0               0        0.0520271        -4.15305                0               0
                        0.936804         48.1303                0               0        0.0903472        -32.7033                0               0
76.935                 0.0475193       -0.637675                0               0         0.315843         137.696                0               0
                        0.088409        -35.0365                0               0         0.931661         46.4769                0               0
                        0.315842         137.696                0               0        0.0477496       -0.492191                0               0
                        0.931657         46.4785                0               0        0.0882868        -35.2143                0               0
76.98                  0.0436128         4.16602                0               0         0.312709         136.223                0               0
                       0.0865479        -37.6834                0               0         0.927174         44.8403                0               0
                        0.312709         136.223                0               0        0.0438586         4.29257                0               0
                        0.927173         44.8418                0               0        0.0864284        -37.8659                0               0
77.025                 0.0403524         10.1127                0               0         0.309703         134.771                0               0
                       0.0847489        -40.3102                0               0         0.922768         43.2251                0               0
                        0.309703         134.771                0               0        0.0406122         10.2044                0               0
                        0.922772         43.2265                0               0        0.0846324        -40.4976                0               0
77.07                  0.0379642         17.1034                0               0         0.306747         133.352                0               0
                       0.0829569        -42.8891                0               0         0.918249          41.633                0               0
                        0.306747         133.351                0               0        0.0382341         17.1426                0               0
                        0.918258         41.6343                0               0        0.0828435        -43.0816                0               0
77.115                 0.0366033         24.8213                0               0         0.303822          131.97                0               0
                        0.081157        -45.4125                0               0         0.913552         40.0649                0               0
                        0.303822         131.969                0               0         0.036877         24.7938                0               0
                        0.913565          40.066                0               0        0.0810468        -45.6101                0               0
77.16                  0.0363232         32.7405                0               0         0.300933         130.628                0               0
                       0.0793494        -47.8782                0               0         0.908669         38.5212                0               0
                        0.300932         130.626                0               0        0.0365933         32.6419                0               0
                        0.908686         38.5223                0               0        0.0792424        -48.0809                0               0
77.205                 0.0370616         40.2779                0               0         0.298093         129.326                0               0