! TOUCHSTONE file generated by CST MICROWAVE STUDIO
! Date and time: Mon Jun 21 17:07:20 2021
! Project name: HIPS_d_sweep.cst
! Parameters = {a=0.735; b=0.393; d=23.4372; fmax=120; fmin=75; phi=0; theta=0}
! Header version: 2018
! Port assignment regex: !\s*Touchstone port\s*([0-9]+)\s*=\s*(CST MWS port|CST DS port)\s*([0-9]+|Zmin|Zmax)\s*\(\"(.*)\"\)(\s*mode\s*([0-9]+))?.*
! Touchstone port assignment:
! Touchstone port 1 = CST MWS port Zmin ("") mode 1
! Touchstone port 2 = CST MWS port Zmin ("") mode 2
! Touchstone port 3 = CST MWS port Zmax ("") mode 1
! Touchstone port 4 = CST MWS port Zmax ("") mode 2
! S-Parameters are not renormalized. Unphysical impedance of 0 will be written to the file.
# GHz S MA R 0
75                       0.20638          9.3761                0               0        0.0459235         19.0662                0               0
                       0.0396456         22.7383                0               0         0.976593        -81.1498                0               0
                       0.0459228          19.067                0               0         0.206359         9.35331                0               0
                        0.976588        -81.1509                0               0        0.0396734         22.8749                0               0
75.045                  0.204586         8.74652                0               0        0.0497818         17.6129                0               0
                       0.0402843         22.9083                0               0         0.976757        -81.8351                0               0
                       0.0497811         17.6136                0               0         0.204565         8.72416                0               0
                        0.976752        -81.8363                0               0        0.0403132         23.0393                0               0
75.09                   0.202579         8.02815                0               0         0.053281         16.2297                0               0
                       0.0408711         22.8404                0               0         0.976965        -82.6069                0               0
                       0.0532802         16.2303                0               0         0.202558         8.00627                0               0
                        0.976961        -82.6081                0               0        0.0409007          22.966                0               0
75.135                  0.200351         7.22049                0               0        0.0564183         14.8714                0               0
                       0.0414021         22.5413                0               0         0.977225        -83.4655                0               0
                       0.0564175          14.872                0               0         0.200331         7.19914                0               0
                        0.977221        -83.4666                0               0        0.0414321         22.6618                0               0
75.18                   0.197894         6.32344                0               0        0.0591935         13.5082                0               0
                       0.0418733         22.0188                0               0         0.977541        -84.4108                0               0
                       0.0591928         13.5088                0               0         0.197874         6.30266                0               0
                        0.977536         -84.412                0               0        0.0419033         22.1345                0               0
75.225                  0.195197         5.33729                0               0        0.0616084         12.1203                0               0
                       0.0422803         21.2814                0               0         0.977916        -85.4424                0               0
                       0.0616077         12.1208                0               0         0.195178         5.31714                0               0
                        0.977912        -85.4436                0               0          0.04231         21.3926                0               0
75.27                   0.192249          4.2627                0               0        0.0636662         10.6939                0               0
                       0.0426185         20.3381                0               0         0.978356        -86.5594                0               0
                       0.0636655         10.6944                0               0          0.19223         4.24322                0               0
                        0.978352        -86.5606                0               0        0.0426476          20.445                0               0
75.315                  0.189037         3.10074                0               0        0.0653714         9.21972                0               0
                        0.042883         19.1986                0               0          0.97886        -87.7608                0               0
                       0.0653707         9.22023                0               0         0.189019           3.082                0               0
                        0.978856         -87.762                0               0        0.0429113         19.3012                0               0
75.36                   0.185548         1.85288                0               0        0.0667297         7.69152                0               0
                       0.0430692         17.8725                0               0         0.979429         -89.045                0               0
                        0.066729         7.69199                0               0         0.185532         1.83492                0               0
                        0.979426        -89.0462                0               0        0.0430964         17.9711                0               0
75.405                   0.18177        0.520975                0               0        0.0677478         6.10511                0               0
                        0.043172         16.3698                0               0         0.980064          -90.41                0               0
                       0.0677473         6.10554                0               0         0.181755        0.503865                0               0
                        0.980061        -90.4112                0               0        0.0431979         16.4645                0               0
75.45                   0.177691       -0.892711                0               0        0.0684336         4.45787                0               0
                       0.0431869         14.7007                0               0         0.980762        -91.8537                0               0
                       0.0684332         4.45825                0               0         0.177677       -0.908902                0               0
                        0.980759        -91.8549                0               0        0.0432114         14.7916                0               0
75.495                  0.173299        -2.38553                0               0        0.0687959         2.74828                0               0
                       0.0431094         12.8752                0               0         0.981519        -93.3735                0               0
                       0.0687956         2.74863                0               0         0.173286        -2.40072                0               0
                        0.981517        -93.3747                0               0        0.0431323         12.9624                0               0
75.54                   0.168584        -3.95447                0               0        0.0688442         0.97567                0               0
                       0.0429356         10.9035                0               0         0.982332        -94.9666                0               0
                       0.0688441        0.975988                0               0         0.168573        -3.96858                0               0
                         0.98233        -94.9678                0               0        0.0429568          10.987                0               0
75.585                  0.163541        -5.59618                0               0        0.0685893        -0.86006                0               0
                       0.0426618         8.79551                0               0         0.983196        -96.6299                0               0
                       0.0685893       -0.859767                0               0         0.163531        -5.60912                0               0
                        0.983194         -96.631                0               0        0.0426812         8.87541                0               0
75.63                   0.158162        -7.30703                0               0        0.0680426        -2.75858                0               0
                       0.0422852         6.56109                0               0         0.984105        -98.3599                0               0
                       0.0680427         -2.7583                0               0         0.158154        -7.31869                0               0
                        0.984103        -98.3611                0               0        0.0423028         6.63733                0               0
75.675                  0.152446        -9.08316                0               0        0.0672166        -4.71927                0               0
                       0.0418036         4.20979                0               0         0.985052        -100.153                0               0
                       0.0672167        -4.71901                0               0          0.15244        -9.09342                0               0
                        0.985051        -100.154                0               0        0.0418194         4.28234                0               0
75.72                   0.146392        -10.9205                0               0        0.0661243        -6.74135                0               0
                       0.0412157          1.7509                0               0         0.986031        -102.006                0               0
                       0.0661245        -6.74107                0               0         0.146388        -10.9293                0               0
                         0.98603        -102.007                0               0        0.0412295         1.81968                0               0
75.765                  0.140004        -12.8151                0               0        0.0647797        -8.82389                0               0
                       0.0405207       -0.806638                0               0         0.987035        -103.914                0               0
                       0.0647799        -8.82361                0               0         0.140003        -12.8221                0               0
                        0.987034        -103.915                0               0        0.0405327       -0.741726                0               0
75.81                   0.133289        -14.7626                0               0        0.0631973         -10.966                0               0
                       0.0397188        -3.45426                0               0         0.988056        -105.874                0               0
                       0.0631976        -10.9657                0               0         0.133289        -14.7678                0               0
                        0.988056        -105.875                0               0        0.0397291        -3.39336                0               0
75.855                  0.126253        -16.7592                0               0        0.0613924        -13.1667                0               0
                       0.0388111        -6.18381                0               0         0.989089        -107.881                0               0
                       0.0613927        -13.1664                0               0         0.126256        -16.7624                0               0
                        0.989088        -107.883                0               0        0.0388196        -6.12712                0               0
75.9                     0.11891        -18.8008                0               0        0.0593805        -15.4252                0               0
                       0.0377992        -8.98756                0               0         0.990125        -109.932                0               0
                       0.0593808        -15.4248                0               0         0.118914        -18.8017                0               0
                        0.990124        -109.933                0               0        0.0378061        -8.93531                0               0
75.945                  0.111272        -20.8839                0               0         0.057178        -17.7407                0               0
                       0.0366857        -11.8582                0               0         0.991158        -112.021                0               0
                       0.0571782        -17.7402                0               0         0.111278        -20.8822                0               0
                        0.991158        -112.023                0               0        0.0366911        -11.8107                0               0
75.99                   0.103354         -23.005                0               0        0.0548011        -20.1124                0               0
                       0.0354736        -14.7887                0               0         0.992183        -114.146                0               0
                       0.0548013        -20.1119                0               0         0.103363        -23.0004                0               0
                        0.992183        -114.147                0               0        0.0354776        -14.7463                0               0
76.035                 0.0951754         -25.161                0               0        0.0522668        -22.5397                0               0
                       0.0341668        -17.7724                0               0         0.993193        -116.301                0               0
                       0.0522669        -22.5391                0               0        0.0951867        -25.1531                0               0
                        0.993192        -116.303                0               0        0.0341696        -17.7355                0               0
76.08                  0.0867537        -27.3492                0               0        0.0495919        -25.0219                0               0
                       0.0327696        -20.8028                0               0         0.994181        -118.483                0               0
                        0.049592        -25.0212                0               0        0.0867672        -27.3373                0               0
                        0.994181        -118.485                0               0        0.0327712        -20.7719                0               0
76.125                 0.0781093        -29.5672                0               0        0.0467936        -27.5581                0               0
                       0.0312868        -23.8734                0               0         0.995142        -120.688                0               0
                       0.0467936        -27.5573                0               0         0.078125        -29.5504                0               0
                        0.995142        -120.689                0               0        0.0312874        -23.8491                0               0
76.17                  0.0692636        -31.8128                0               0        0.0438891        -30.1473                0               0
                       0.0297238        -26.9774                0               0         0.996068        -122.911                0               0
                        0.043889        -30.1464                0               0        0.0692815        -31.7901                0               0
                        0.996068        -122.913                0               0        0.0297236        -26.9605                0               0
76.215                  0.060239        -34.0842                0               0        0.0408957        -32.7878                0               0
                       0.0280864        -30.1075                0               0         0.996951        -125.149                0               0
                       0.0408955        -32.7868                0               0         0.060259        -34.0538                0               0
                         0.99695        -125.151                0               0        0.0280856        -30.0988                0               0
76.26                  0.0510593        -36.3798                0               0        0.0378307        -35.4769                0               0
                       0.0263811        -33.2555                0               0         0.997778        -127.399                0               0
                       0.0378305        -35.4758                0               0        0.0510812        -36.3389                0               0
                        0.997778          -127.4                0               0        0.0263798        -33.2562                0               0
76.305                 0.0417491        -38.6978                0               0        0.0347114        -38.2102                0               0
                       0.0246147        -36.4116                0               0         0.998538        -129.655                0               0
                       0.0347112         -38.209                0               0         0.041773         -38.642                0               0
                        0.998537        -129.657                0               0        0.0246131        -36.4229                0               0
76.35                   0.032335        -41.0365                0               0        0.0315553        -40.9805                0               0
                       0.0227947        -39.5635                0               0          0.99921        -131.915                0               0
                       0.0315551        -40.9793                0               0        0.0323607         -40.957                0               0
                        0.999209        -131.917                0               0         0.022793        -39.5872                0               0
76.395                 0.0228448        -43.3926                0               0        0.0283796         -43.776                0               0
                       0.0209293        -42.6955                0               0         0.999772        -134.174                0               0
                       0.0283794        -43.7747                0               0        0.0228723        -43.2699                0               0
                        0.999771        -134.176                0               0        0.0209276        -42.7336                0               0
76.44                  0.0133086        -45.7566                0               0        0.0252018        -46.5767                0               0
                       0.0190273         -45.786                0               0                1         -136.43                0               0
                       0.0252017        -46.5754                0               0        0.0133378        -45.5292                0               0
                               1        -136.432                0               0        0.0190258        -45.8415                0               0
76.485                0.00375817        -48.0327                0               0        0.0220391         -49.349                0               0
                       0.0170984         -48.805                0               0                1        -138.678                0               0
                        0.022039        -49.3477                0               0       0.00378955        -47.1746                0               0
                               1         -138.68                0               0        0.0170972        -48.8816                0               0
76.53                 0.00577224         129.248                0               0        0.0189087        -52.0345                0               0
                       0.0151531        -51.7086                0               0                1        -140.915                0               0
                       0.0189086        -52.0331                0               0        0.0057403         128.643                0               0
                               1        -140.917                0               0        0.0151524        -51.8114                0               0
76.575                 0.0152463          126.88                0               0        0.0158277        -54.5266                0               0
                        0.013203        -54.4293                0               0                1        -143.138                0               0
                       0.0158277        -54.5252                0               0        0.0152125         126.638                0               0
                               1         -143.14                0               0        0.0132027        -54.5658                0               0
76.62                  0.0246258         124.441                0               0        0.0128141        -56.6189                0               0
                       0.0112608        -56.8576                0               0         0.999553        -145.342                0               0
                       0.0128141        -56.6175                0               0        0.0245905         124.283                0               0
                        0.999551        -145.344                0               0        0.0112609        -57.0388                0               0
76.665                  0.033871         121.976                0               0       0.00988794        -57.8692                0               0
                      0.00934096        -58.8027                0               0         0.998502        -147.525                0               0
                      0.00988803        -57.8676                0               0        0.0338344         121.856                0               0
                          0.9985        -147.527                0               0       0.00934111         -59.046                0               0
76.71                  0.0429417         119.496                0               0       0.00707957        -57.1704                0               0
                      0.00746087        -59.8997                0               0         0.996942        -149.684                0               0
                       0.0070797        -57.1686                0               0        0.0429039         119.397                0               0
                        0.996939        -149.686                0               0       0.00746044        -60.2347                0               0
76.755                 0.0517981         117.001                0               0       0.00446377        -50.9845                0               0
                      0.00564452        -59.3588                0               0         0.994791        -151.817                0               0
                      0.00446391        -50.9821                0               0        0.0517592         116.916                0               0
                        0.994788        -151.819                0               0       0.00564204        -59.8398                0               0
76.8                   0.0604021         114.497                0               0       0.00239823        -23.9968                0               0
                      0.00393575        -55.1548                0               0         0.991972        -153.921                0               0
                      0.00239841        -23.9942                0               0        0.0603625         114.421                0               0
                        0.991969        -153.923                0               0       0.00392768        -55.8907                0               0
76.845                 0.0687193         111.985                0               0        0.0024831         36.7387                0               0
                      0.00245822        -40.9364                0               0          0.98842        -155.995                0               0
                       0.0024833         36.7378                0               0        0.0686792         111.917                0               0
                        0.988417        -155.997                0               0       0.00243499        -42.0959                0               0
76.89                    0.07672         109.469                0               0       0.00445529         60.2898                0               0
                      0.00169585        -1.07571                0               0         0.984089        -158.039                0               0
                      0.00445553         60.2891                0               0        0.0766799         109.407                0               0
                        0.984085        -158.041                0               0       0.00164226        -1.84575                0               0
76.935                 0.0843811         106.954                0               0       0.00675993         65.1766                0               0
                      0.00229124          40.091                0               0         0.978959        -160.051                0               0
                      0.00676026         65.1765                0               0        0.0843412         106.896                0               0
                        0.978955        -160.053                0               0       0.00223408         40.6539                0               0
76.98                  0.0916865         104.446                0               0       0.00910341         64.8944                0               0
                      0.00351736         55.0949                0               0         0.973041        -162.031                0               0
                      0.00910384         64.8947                0               0         0.091647         104.393                0               0
                        0.973037        -162.033                0               0       0.00346695         55.7521                0               0
77.025                  0.098627         101.953                0               0        0.0114374         62.6485                0               0
                      0.00484176         59.5365                0               0         0.966379        -163.979                0               0
                        0.011438         62.6491                0               0        0.0985883         101.903                0               0
                        0.966374        -163.981                0               0       0.00479424         60.1028                0               0
77.07                     0.1052         99.4845                0               0         0.013754         59.5067                0               0
                      0.00613984         60.1598                0               0         0.959047        -165.893                0               0
                       0.0137547         59.5074                0               0         0.105162         99.4368                0               0
                        0.959041        -165.896                0               0       0.00609289         60.6457                0               0
77.115                  0.111409         97.0495                0               0        0.0160524          55.936                0               0
                      0.00737815         59.1158                0               0         0.951146        -167.774                0               0
                        0.016053         55.9367                0               0         0.111372         97.0041                0               0
                         0.95114        -167.777                0               0       0.00733059         59.5417                0               0
77.16                   0.117261          94.659                0               0        0.0183296         52.1806                0               0
                      0.00854617         57.2538                0               0           0.9428        -169.621                0               0
                       0.0183303         52.1811                0               0         0.117225         94.6157                0               0
                        0.942793        -169.623                0               0       0.00849738         57.6346                0               0
77.205                  0.122765         92.3236                0               0        0.0205781         48.3819                0               0