! TOUCHSTONE file generated by CST MICROWAVE STUDIO
! Date and time: Mon Jun 21 17:07:18 2021
! Project name: HIPS_d_sweep.cst
! Parameters = {a=0.735; b=0.393; d=23.2362; fmax=120; fmin=75; phi=0; theta=0}
! Header version: 2018
! Port assignment regex: !\s*Touchstone port\s*([0-9]+)\s*=\s*(CST MWS port|CST DS port)\s*([0-9]+|Zmin|Zmax)\s*\(\"(.*)\"\)(\s*mode\s*([0-9]+))?.*
! Touchstone port assignment:
! Touchstone port 1 = CST MWS port Zmin ("") mode 1
! Touchstone port 2 = CST MWS port Zmin ("") mode 2
! Touchstone port 3 = CST MWS port Zmax ("") mode 1
! Touchstone port 4 = CST MWS port Zmax ("") mode 2
! S-Parameters are not renormalized. Unphysical impedance of 0 will be written to the file.
# GHz S MA R 0
75                      0.244224         32.2389                0               0        0.0543237         41.3007                0               0
                       0.0380447         52.5053                0               0          0.96744        -58.2408                0               0
                       0.0543235         41.2994                0               0          0.24425         32.2839                0               0
                        0.967449         -58.238                0               0         0.038082         52.7046                0               0
75.045                  0.243272         31.6135                0               0        0.0580691          40.034                0               0
                       0.0386393         52.9517                0               0         0.967464        -58.9084                0               0
                        0.058069         40.0328                0               0         0.243297         31.6583                0               0
                        0.967473        -58.9055                0               0        0.0386787         53.1478                0               0
75.09                   0.242235         30.8981                0               0        0.0614962         38.8357                0               0
                       0.0392229          53.113                0               0         0.967463        -59.6619                0               0
                       0.0614961         38.8345                0               0          0.24226         30.9428                0               0
                        0.967473         -59.659                0               0        0.0392639         53.3061                0               0
75.135                  0.241114         30.0946                0               0        0.0645853         37.6609                0               0
                       0.0397963         53.0054                0               0         0.967468        -60.5008                0               0
                       0.0645851         37.6597                0               0         0.241139         30.1389                0               0
                        0.967478         -60.498                0               0        0.0398385         53.1957                0               0
75.18                   0.239903         29.2045                0               0        0.0673254         36.4781                0               0
                       0.0403589         52.6442                0               0         0.967503        -61.4244                0               0
                       0.0673253         36.4769                0               0         0.239928         29.2486                0               0
                        0.967512        -61.4216                0               0         0.040402         52.8317                0               0
75.225                  0.238595         28.2296                0               0        0.0697128         35.2653                0               0
                       0.0409088         52.0435                0               0         0.967588        -62.4315                0               0
                       0.0697127         35.2641                0               0         0.238619         28.2733                0               0
                        0.967597        -62.4287                0               0        0.0409526         52.2282                0               0
75.27                   0.237178         27.1715                0               0        0.0717494         34.0078                0               0
                       0.0414431         51.2166                0               0         0.967738        -63.5208                0               0
                       0.0717494         34.0066                0               0         0.237202         27.2148                0               0
                        0.967747         -63.518                0               0        0.0414872         51.3986                0               0
75.315                  0.235637         26.0317                0               0        0.0734417         32.6961                0               0
                       0.0419575         50.1758                0               0         0.967967        -64.6907                0               0
                       0.0734417         32.6949                0               0         0.235661         26.0746                0               0
                        0.967975        -64.6879                0               0        0.0420017         50.3552                0               0
75.36                   0.233958         24.8118                0               0        0.0747993         31.3249                0               0
                       0.0424471         48.9332                0               0          0.96828        -65.9395                0               0
                       0.0747993         31.3236                0               0         0.233981         24.8542                0               0
                        0.968289        -65.9366                0               0        0.0424911         49.1101                0               0
75.405                  0.232121         23.5136                0               0         0.075834         29.8918                0               0
                       0.0429058            47.5                0               0         0.968682         -67.265                0               0
                       0.0758341         29.8905                0               0         0.232144         23.5555                0               0
                         0.96869        -67.2622                0               0        0.0429495         47.6744                0               0
75.45                   0.230108         22.1387                0               0        0.0765594         28.3966                0               0
                       0.0433273         45.8874                0               0         0.969173        -68.6652                0               0
                       0.0765596         28.3953                0               0          0.23013         22.1801                0               0
                        0.969181        -68.6623                0               0        0.0433704         46.0593                0               0
75.495                  0.227898         20.6892                0               0        0.0769898         26.8406                0               0
                       0.0437045         44.1061                0               0          0.96975        -70.1376                0               0
                         0.07699         26.8393                0               0         0.227919         20.7301                0               0
                        0.969759        -70.1347                0               0        0.0437469         44.2757                0               0
75.54                   0.225471         19.1672                0               0        0.0771396         25.2261                0               0
                       0.0440303         42.1669                0               0         0.970408        -71.6795                0               0
                         0.07714         25.2248                0               0          0.22549         19.2076                0               0
                        0.970416        -71.6766                0               0        0.0440717         42.3344                0               0
75.585                  0.222805         17.5753                0               0        0.0770237         23.5562                0               0
                       0.0442973         40.0808                0               0         0.971139        -73.2882                0               0
                       0.0770241         23.5549                0               0         0.222824          17.615                0               0
                        0.971148        -73.2853                0               0        0.0443375         40.2462                0               0
75.63                   0.219881          15.916                0               0        0.0766561         21.8341                0               0
                       0.0444984         37.8588                0               0         0.971936        -74.9607                0               0
                       0.0766566         21.8328                0               0         0.219899         15.9551                0               0
                        0.971944        -74.9577                0               0        0.0445373         38.0221                0               0
75.675                  0.216681         14.1925                0               0        0.0760507         20.0632                0               0
                        0.044627         35.5117                0               0         0.972787        -76.6938                0               0
                       0.0760513         20.0618                0               0         0.216698          14.231                0               0
                        0.972796        -76.6909                0               0        0.0446644         35.6732                0               0
75.72                   0.213187         12.4082                0               0        0.0752206         18.2466                0               0
                       0.0446769         33.0509                0               0         0.973684        -78.4843                0               0
                       0.0752213         18.2452                0               0         0.213204          12.446                0               0
                        0.973693        -78.4814                0               0        0.0447128         33.2106                0               0
75.765                  0.209386         10.5669                0               0        0.0741783         16.3872                0               0
                       0.0446431         30.4875                0               0         0.974618        -80.3287                0               0
                        0.074179         16.3859                0               0         0.209402         10.6039                0               0
                        0.974627        -80.3258                0               0        0.0446773         30.6456                0               0
75.81                   0.205266         8.67246                0               0        0.0729354         14.4874                0               0
                       0.0445213         27.8326                0               0         0.975581        -82.2235                0               0
                       0.0729362         14.4861                0               0         0.205282         8.70867                0               0
                        0.975589        -82.2205                0               0        0.0445537         27.9891                0               0
75.855                  0.200819         6.72917                0               0        0.0715031         12.5491                0               0
                       0.0443085         25.0969                0               0         0.976566        -84.1649                0               0
                        0.071504         12.5479                0               0         0.200836          6.7645                0               0
                        0.976575        -84.1619                0               0         0.044339          25.252                0               0
75.9                    0.196042         4.74135                0               0        0.0698922         10.5735                0               0
                       0.0440028         22.2912                0               0         0.977571        -86.1492                0               0
                        0.069893         10.5723                0               0         0.196058         4.77573                0               0
                        0.977579        -86.1462                0               0        0.0440313         22.4449                0               0
75.945                  0.190933         2.71336                0               0        0.0681128         8.56087                0               0
                       0.0436035         19.4253                0               0         0.978593        -88.1726                0               0
                       0.0681136         8.55974                0               0          0.19095         2.74671                0               0
                        0.978601        -88.1695                0               0        0.0436301         19.5777                0               0
75.99                   0.185496        0.649495                0               0        0.0661751         6.51094                0               0
                        0.043111         16.5086                0               0         0.979634        -90.2311                0               0
                        0.066176         6.50985                0               0         0.185513        0.681744                0               0
                        0.979642        -90.2281                0               0        0.0431357         16.6598                0               0
76.035                  0.179736        -1.44615                0               0        0.0640895         4.42247                0               0
                       0.0425267         13.5499                0               0         0.980698         -92.321                0               0
                       0.0640904         4.42142                0               0         0.179754        -1.41508                0               0
                        0.980705        -92.3179                0               0        0.0425495         13.6999                0               0
76.08                   0.173665        -3.56977                0               0        0.0618669         2.29352                0               0
                       0.0418528          10.557                0               0          0.98179        -94.4383                0               0
                       0.0618678         2.29248                0               0         0.173682        -3.53995                0               0
                        0.981797        -94.4352                0               0        0.0418737         10.7058                0               0
76.125                  0.167293        -5.71792                0               0        0.0595187        0.121504                0               0
                        0.041092         7.53687                0               0         0.982917        -96.5791                0               0
                       0.0595196        0.120477                0               0          0.16731        -5.68941                0               0
                        0.982923         -96.576                0               0        0.0411111         7.68452                0               0
76.17                   0.160634        -7.88751                0               0        0.0570576        -2.09647                0               0
                       0.0402476         4.49599                0               0         0.984085        -98.7396                0               0
                       0.0570585        -2.09751                0               0         0.160651        -7.86037                0               0
                        0.984091        -98.7365                0               0         0.040265         4.64244                0               0
76.215                  0.153705        -10.0758                0               0        0.0544977        -4.36317                0               0
                       0.0393229         1.44007                0               0         0.985299        -100.916                0               0
                       0.0544986        -4.36423                0               0         0.153722        -10.0501                0               0
                        0.985304        -100.913                0               0        0.0393386          1.5853                0               0
76.26                   0.146521        -12.2803                0               0        0.0518543         -6.6805                0               0
                       0.0383212        -1.62546                0               0         0.986558        -103.105                0               0
                       0.0518552         -6.6816                0               0         0.146537        -12.2561                0               0
                        0.986564        -103.101                0               0        0.0383353         -1.4815                0               0
76.305                  0.139099        -14.4984                0               0        0.0491441        -9.04849                0               0
                       0.0372458        -4.69517                0               0         0.987858        -105.302                0               0
                        0.049145        -9.04964                0               0         0.139115        -14.4758                0               0
                        0.987863        -105.299                0               0        0.0372583        -4.55252                0               0
76.35                   0.131456        -16.7272                0               0         0.046385        -11.4639                0               0
                       0.0360997        -7.76321                0               0         0.989182        -107.504                0               0
                        0.046386        -11.4651                0               0         0.131472        -16.7063                0               0
                        0.989187        -107.501                0               0        0.0361108        -7.62192                0               0
76.395                  0.123609        -18.9628                0               0        0.0435954        -13.9186                0               0
                       0.0348858        -10.8227                0               0         0.990505        -109.707                0               0
                       0.0435964        -13.9199                0               0         0.123625        -18.9437                0               0
                        0.990508        -109.704                0               0        0.0348955        -10.6828                0               0
76.44                   0.115576        -21.1997                0               0        0.0407936        -16.3972                0               0
                       0.0336069        -13.8651                0               0         0.991784        -111.909                0               0
                       0.0407947        -16.3986                0               0         0.115592        -21.1827                0               0
                        0.991788        -111.905                0               0        0.0336152        -13.7266                0               0
76.485                  0.107375        -23.4297                0               0         0.037997         -18.875                0               0
                       0.0322658        -16.8792                0               0         0.992966        -114.105                0               0
                       0.0379981        -18.8764                0               0          0.10739        -23.4152                0               0
                        0.992969        -114.102                0               0        0.0322729         -16.742                0               0
76.53                  0.0990247        -25.6405                0               0        0.0352212        -21.3146                0               0
                       0.0308657        -19.8503                0               0          0.99398        -116.293                0               0
                       0.0352224        -21.3161                0               0        0.0990395        -25.6289                0               0
                        0.993983         -116.29                0               0        0.0308716        -19.7145                0               0
76.575                 0.0905462        -27.8138                0               0          0.03248        -23.6633                0               0
                       0.0294105        -22.7591                0               0         0.994745         -118.47                0               0
                       0.0324812        -23.6649                0               0        0.0905608        -27.8057                0               0
                        0.994747        -118.467                0               0        0.0294153        -22.6246                0               0
76.62                  0.0819626        -29.9225                0               0        0.0297851        -25.8487                0               0
                       0.0279051        -25.5802                0               0         0.995167        -120.633                0               0
                       0.0297863        -25.8504                0               0        0.0819772        -29.9189                0               0
                        0.995169         -120.63                0               0        0.0279091        -25.4469                0               0
76.665                 0.0733001        -31.9262                0               0        0.0271471        -27.7739                0               0
                       0.0263564        -28.2808                0               0          0.99515        -122.781                0               0
                       0.0271483        -27.7756                0               0        0.0733146         -31.928                0               0
                        0.995152        -122.778                0               0        0.0263594        -28.1487                0               0
76.71                  0.0645885        -33.7632                0               0        0.0245774        -29.3101                0               0
                       0.0247727        -30.8191                0               0           0.9946        -124.911                0               0
                       0.0245785        -29.3119                0               0        0.0646027         -33.772                0               0
                        0.994602        -124.908                0               0        0.0247751        -30.6882                0               0
76.755                 0.0558623        -35.3367                0               0        0.0220907        -30.2861                0               0
                       0.0231655        -33.1432                0               0         0.993433        -127.021                0               0
                       0.0220918         -30.288                0               0        0.0558759        -35.3546                0               0
                        0.993434        -127.018                0               0        0.0231672        -33.0134                0               0
76.8                   0.0471629        -36.4861                0               0        0.0197095        -30.4745                0               0
                       0.0215485        -35.1889                0               0         0.991578         -129.11                0               0
                       0.0197105        -30.4766                0               0        0.0471755        -36.5161                0               0
                        0.991579        -129.107                0               0        0.0215498        -35.0605                0               0
76.845                 0.0385429        -36.9211                0               0        0.0174691        -29.5753                0               0
                       0.0199389        -36.8793                0               0          0.98899        -131.177                0               0
                       0.0174701        -29.5775                0               0        0.0385536         -36.968                0               0
                        0.988991        -131.173                0               0        0.0199399        -36.7528                0               0
76.89                  0.0300786        -36.0553                0               0        0.0154255        -27.2086                0               0
                       0.0183568        -38.1242                0               0         0.985647        -133.219                0               0
                       0.0154263        -27.2111                0               0         0.030086        -36.1273                0               0
                        0.985647        -133.215                0               0        0.0183575        -38.0003                0               0
76.935                 0.0219098        -32.5008                0               0        0.0136627        -22.9517                0               0
                        0.016825        -38.8208                0               0         0.981555        -135.235                0               0
                       0.0136634        -22.9546                0               0         0.021911         -32.614                0               0
                        0.981555        -135.231                0               0        0.0168254        -38.7007                0               0
76.98                  0.0144007        -22.2264                0               0        0.0122972         -16.495                0               0
                        0.015369        -38.8574                0               0         0.976746        -137.224                0               0
                       0.0122978        -16.4983                0               0        0.0143894        -22.4103                0               0
                        0.976746         -137.22                0               0        0.0153691        -38.7428                0               0
77.025                0.00896842         7.56384                0               0        0.0114625        -7.98617                0               0
                       0.0140162        -38.1216                0               0         0.971276        -139.184                0               0
                       0.0114629        -7.98982                0               0        0.0089302         7.34506                0               0
                        0.971277        -139.181                0               0        0.0140157        -38.0146                0               0
77.07                  0.0095342         57.2541                0               0        0.0112607         1.62535                0               0
                       0.0127944        -36.5152                0               0          0.96522        -141.115                0               0
                        0.011261         1.62159                0               0       0.00948087         57.3248                0               0
                         0.96522        -141.111                0               0        0.0127932        -36.4183                0               0
77.115                 0.0151278         81.9617                0               0        0.0116997         10.8132                0               0
                       0.0117309        -33.9794                0               0         0.958666        -143.015                0               0
                       0.0116998         10.8096                0               0        0.0150844         82.1059                0               0
                        0.958666        -143.011                0               0        0.0117285        -33.8947                0               0
77.16                  0.0219803         90.6879                0               0        0.0126805         18.3286                0               0
                       0.0108491        -30.5269                0               0         0.951709        -144.882                0               0
                       0.0126806         18.3253                0               0        0.0219444         90.8153                0               0
                        0.951709        -144.879                0               0        0.0108449         -30.456                0               0
77.205                  0.029015         93.9919                0               0         0.014052         23.7318                0               0