! TOUCHSTONE file generated by CST MICROWAVE STUDIO
! Date and time: Mon Jun 21 17:06:41 2021
! Project name: HIPS_d_sweep.cst
! Parameters = {a=0.735; b=0.393; d=18.6633; fmax=120; fmin=75; phi=0; theta=0}
! Header version: 2018
! Port assignment regex: !\s*Touchstone port\s*([0-9]+)\s*=\s*(CST MWS port|CST DS port)\s*([0-9]+|Zmin|Zmax)\s*\(\"(.*)\"\)(\s*mode\s*([0-9]+))?.*
! Touchstone port assignment:
! Touchstone port 1 = CST MWS port Zmin ("") mode 1
! Touchstone port 2 = CST MWS port Zmin ("") mode 2
! Touchstone port 3 = CST MWS port Zmax ("") mode 1
! Touchstone port 4 = CST MWS port Zmax ("") mode 2
! S-Parameters are not renormalized. Unphysical impedance of 0 will be written to the file.
# GHz S MA R 0
75                      0.210811          30.428                0               0         0.332586        -152.834                0               0
                       0.0938309         79.2441                0               0         0.914417         114.714                0               0
                        0.332587        -152.834                0               0          0.21069         30.4259                0               0
                        0.914407         114.715                0               0        0.0940159         79.3211                0               0
75.045                  0.209666         30.0399                0               0         0.335673        -153.421                0               0
                       0.0945924         78.4354                0               0         0.914084         114.171                0               0
                        0.335673        -153.421                0               0         0.209544         30.0378                0               0
                        0.914074         114.173                0               0        0.0947771         78.5126                0               0
75.09                   0.208463         29.5823                0               0         0.338479        -154.059                0               0
                       0.0952798         77.5092                0               0         0.913543         113.551                0               0
                        0.338479        -154.059                0               0         0.208339         29.5803                0               0
                        0.913532         113.553                0               0        0.0954641         77.5865                0               0
75.135                  0.207205         29.0581                0               0         0.341008        -154.752                0               0
                       0.0959041         76.4603                0               0         0.912872         112.855                0               0
                        0.341007        -154.752                0               0         0.207081         29.0561                0               0
                        0.912861         112.856                0               0        0.0960878         76.5378                0               0
75.18                   0.205898         28.4699                0               0         0.343263        -155.502                0               0
                       0.0964765         75.2855                0               0          0.91214         112.084                0               0
                        0.343262        -155.502                0               0         0.205772         28.4678                0               0
                        0.912128         112.085                0               0        0.0966595         75.3632                0               0
75.225                   0.20454         27.8203                0               0         0.345253        -156.312                0               0
                       0.0970082          73.983                0               0         0.911406          111.24                0               0
                        0.345252        -156.312                0               0         0.204414         27.8182                0               0
                        0.911394         111.242                0               0        0.0971905         74.0609                0               0
75.27                   0.203132          27.112                0               0         0.346987        -157.182                0               0
                       0.0975099         72.5528                0               0         0.910719         110.327                0               0
                        0.346986        -157.182                0               0         0.203004         27.1098                0               0
                        0.910707         110.329                0               0        0.0976912         72.6311                0               0
75.315                  0.201667         26.3473                0               0         0.348475        -158.115                0               0
                       0.0979906         70.9964                0               0         0.910118         109.347                0               0
                        0.348474        -158.114                0               0         0.201539         26.3451                0               0
                        0.910106         109.349                0               0         0.098171         71.0752                0               0
75.36                   0.200141         25.5286                0               0          0.34973        -159.109                0               0
                       0.0984582         69.3164                0               0         0.909633         108.303                0               0
                        0.349729        -159.109                0               0         0.200012         25.5263                0               0
                        0.909621         108.304                0               0        0.0986375         69.3958                0               0
75.405                  0.198546         24.6582                0               0         0.350764        -160.166                0               0
                       0.0989185         67.5166                0               0         0.909287         107.198                0               0
                        0.350763        -160.166                0               0         0.198416         24.6558                0               0
                        0.909275         107.199                0               0        0.0990966         67.5968                0               0
75.45                   0.196874         23.7381                0               0         0.351589        -161.284                0               0
                       0.0993754         65.6016                0               0         0.909092         106.034                0               0
                        0.351588        -161.284                0               0         0.196743         23.7356                0               0
                         0.90908         106.036                0               0        0.0995521         65.6826                0               0
75.495                  0.195116         22.7705                0               0         0.352218        -162.463                0               0
                       0.0998306         63.5766                0               0         0.909057         104.816                0               0
                        0.352216        -162.462                0               0         0.194984         22.7679                0               0
                        0.909045         104.818                0               0         0.100006         63.6586                0               0
75.54                   0.193262         21.7575                0               0         0.352662          -163.7                0               0
                        0.100284         61.4473                0               0         0.909182         103.546                0               0
                        0.352661          -163.7                0               0         0.193129         21.7548                0               0
                         0.90917         103.548                0               0         0.100458         61.5304                0               0
75.585                    0.1913         20.7013                0               0         0.352934        -164.994                0               0
                        0.100734           59.22                0               0         0.909464         102.226                0               0
                        0.352932        -164.994                0               0         0.191167         20.6984                0               0
                        0.909453         102.228                0               0         0.100906         59.3043                0               0
75.63                   0.189221         19.6041                0               0         0.353043        -166.343                0               0
                        0.101176         56.9008                0               0         0.909896          100.86                0               0
                        0.353042        -166.343                0               0         0.189087         19.6012                0               0
                        0.909884         100.862                0               0         0.101346         56.9864                0               0
75.675                  0.187014         18.4685                0               0         0.353001        -167.744                0               0
                        0.101606         54.4964                0               0         0.910465           99.45                0               0
                        0.352999        -167.744                0               0         0.186878         18.4654                0               0
                        0.910454         99.4517                0               0         0.101774         54.5834                0               0
75.72                   0.184667         17.2969                0               0         0.352816        -169.194                0               0
                        0.102017         52.0133                0               0         0.911158         97.9986                0               0
                        0.352814        -169.194                0               0         0.184531         17.2936                0               0
                        0.911147         98.0003                0               0         0.102183         52.1018                0               0
75.765                  0.182172         16.0922                0               0         0.352496         -170.69                0               0
                        0.102403         49.4582                0               0         0.911958         96.5082                0               0
                        0.352495         -170.69                0               0         0.182035         16.0888                0               0
                        0.911948         96.5099                0               0         0.102566         49.5482                0               0
75.81                   0.179518         14.8575                0               0         0.352051         -172.23                0               0
                        0.102756         46.8376                0               0         0.912849         94.9813                0               0
                         0.35205         -172.23                0               0         0.179381         14.8539                0               0
                        0.912839         94.9831                0               0         0.102916         46.9293                0               0
75.855                  0.176698         13.5962                0               0         0.351487         -173.81                0               0
                        0.103067         44.1583                0               0         0.913812         93.4202                0               0
                        0.351486         -173.81                0               0          0.17656         13.5925                0               0
                        0.913802         93.4219                0               0         0.103225         44.2516                0               0
75.9                    0.173704         12.3121                0               0         0.350812        -175.426                0               0
                        0.103331         41.4268                0               0          0.91483          91.827                0               0
                        0.350811        -175.426                0               0         0.173565         12.3083                0               0
                         0.91482         91.8288                0               0         0.103485         41.5218                0               0
75.945                   0.17053         11.0094                0               0         0.350032        -177.076                0               0
                        0.103538         38.6495                0               0         0.915886         90.2042                0               0
                        0.350031        -177.076                0               0          0.17039         11.0054                0               0
                        0.915877         90.2059                0               0          0.10369         38.7462                0               0
75.99                   0.167172         9.69247                0               0         0.349155        -178.756                0               0
                        0.103684         35.8329                0               0         0.916964         88.5538                0               0
                        0.349154        -178.756                0               0         0.167032         9.68831                0               0
                        0.916955         88.5555                0               0         0.103833         35.9312                0               0
76.035                  0.163629         8.36629                0               0         0.348186         179.537                0               0
                        0.103763          32.983                0               0         0.918052         86.8781                0               0
                        0.348186         179.537                0               0         0.163488         8.36196                0               0
                        0.918044         86.8799                0               0         0.103909          33.083                0               0
76.08                     0.1599          7.0361                0               0         0.347134         177.806                0               0
                        0.103771         30.1057                0               0         0.919139         85.1796                0               0
                        0.347133         177.806                0               0         0.159759          7.0316                0               0
                        0.919132         85.1814                0               0         0.103914         30.2073                0               0
76.125                  0.155988         5.70751                0               0         0.346005         176.054                0               0
                        0.103706         27.2065                0               0         0.920219         83.4607                0               0
                        0.346005         176.054                0               0         0.155847         5.70284                0               0
                        0.920212         83.4626                0               0         0.103845         27.3098                0               0
76.17                   0.151897         4.38642                0               0         0.344807         174.284                0               0
                        0.103567         24.2906                0               0         0.921289         81.7241                0               0
                        0.344807         174.284                0               0         0.151756         4.38159                0               0
                        0.921282          81.726                0               0         0.103703         24.3956                0               0
76.215                  0.147636         3.07898                0               0          0.34355         172.498                0               0
                        0.103355         21.3626                0               0         0.922349         79.9728                0               0
                        0.343549         172.498                0               0         0.147494           3.074                0               0
                        0.922343         79.9747                0               0         0.103488         21.4692                0               0
76.26                   0.143212          1.7915                0               0         0.342241         170.699                0               0
                        0.103074         18.4265                0               0         0.923405           78.21                0               0
                         0.34224         170.699                0               0          0.14307         1.78638                0               0
                        0.923399          78.212                0               0         0.103203         18.5346                0               0
76.305                  0.138638        0.530362                0               0         0.340891          168.89                0               0
                        0.102728         15.4855                0               0         0.924465         76.4396                0               0
                        0.340891          168.89                0               0         0.138496        0.525126                0               0
                        0.924458         76.4416                0               0         0.102853         15.5952                0               0
76.35                   0.133927       -0.698032                0               0          0.33951         167.072                0               0
                        0.102324         12.5423                0               0         0.925537         74.6656                0               0
                         0.33951         167.072                0               0         0.133786       -0.703356                0               0
                        0.925531         74.6676                0               0         0.102446         12.6536                0               0
76.395                  0.129094        -1.88734                0               0         0.338111         165.248                0               0
                        0.101871         9.59888                0               0         0.926633         72.8926                0               0
                        0.338111         165.248                0               0         0.128952        -1.89272                0               0
                        0.926627         72.8947                0               0          0.10199         9.71174                0               0
76.44                   0.124155        -3.03127                0               0         0.336705          163.42                0               0
                        0.101378         6.65663                0               0         0.927761         71.1256                0               0
                        0.336705          163.42                0               0         0.124013        -3.03665                0               0
                        0.927755         71.1277                0               0         0.101493         6.77116                0               0
76.485                  0.119125        -4.12342                0               0         0.335305          161.59                0               0
                        0.100854         3.71683                0               0         0.928924         69.3696                0               0
                        0.335305          161.59                0               0         0.118983        -4.12874                0               0
                        0.928918         69.3718                0               0         0.100965         3.83312                0               0
76.53                    0.11402         -5.1569                0               0         0.333922          159.76                0               0
                        0.100307        0.781008                0               0          0.93012         67.6294                0               0
                        0.333922          159.76                0               0         0.113878         -5.1621                0               0
                        0.930115         67.6316                0               0         0.100414        0.899139                0               0
76.575                  0.108855        -6.12358                0               0         0.332566         157.933                0               0
                        0.099743        -2.14842                0               0         0.931344         65.9086                0               0
                        0.332566         157.933                0               0         0.108714        -6.12855                0               0
                        0.931339         65.9108                0               0        0.0998456        -2.02834                0               0
76.62                   0.103643         -7.0126                0               0         0.331244         156.112                0               0
                       0.0991612        -5.06739                0               0         0.932583         64.2086                0               0
                        0.331243         156.112                0               0         0.103502        -7.01724                0               0
                        0.932579         64.2108                0               0        0.0992596        -4.94531                0               0
76.665                 0.0983949        -7.80816                0               0         0.329954         154.301                0               0
                       0.0985524        -7.96976                0               0         0.933821         62.5276                0               0
                        0.329954         154.301                0               0        0.0982537         -7.8123                0               0
                        0.933817         62.5298                0               0        0.0986464        -7.84567                0               0
76.71                  0.0931192        -8.48602                0               0         0.328687         152.505                0               0
                       0.0978958        -10.8473                0               0         0.935021         60.8588                0               0
                        0.328687         152.505                0               0        0.0929783        -8.48946                0               0
                        0.935017         60.8609                0               0        0.0979853        -10.7213                0               0
76.755                 0.0878246         -9.0091                0               0         0.327416         150.729                0               0
                       0.0971583        -13.6905                0               0         0.936088         59.1894                0               0
                        0.327416         150.729                0               0        0.0876841        -9.01154                0               0
                        0.936085         59.1916                0               0        0.0972437        -13.5628                0               0
76.8                   0.0825221        -9.32248                0               0         0.326098          148.98                0               0
                       0.0962983        -16.4903                0               0         0.936794          57.503                0               0
                        0.326098          148.98                0               0         0.082382        -9.32348                0               0
                        0.936791         57.5052                0               0        0.0963799         -16.361                0               0
76.845                 0.0772307        -9.34943                0               0         0.324666         147.264                0               0
                       0.0952741        -19.2391                0               0         0.936711         55.7881                0               0
                        0.324667         147.264                0               0        0.0770912        -9.34833                0               0
                        0.936707         55.7905                0               0        0.0953522        -19.1085                0               0
76.89                  0.0719852         -8.9905                0               0         0.323039         145.588                0               0
                       0.0940552        -21.9314                0               0          0.93531         54.0524                0               0
                         0.32304         145.588                0               0        0.0718463        -8.98631                0               0
                        0.935309          54.055                0               0          0.09413        -21.7995                0               0
76.935                 0.0668439        -8.12819                0               0         0.321126          143.96                0               0
                       0.0926319        -24.5631                0               0           0.9323         52.3268                0               0
                        0.321128          143.96                0               0        0.0667061        -8.11952                0               0
                        0.932301         52.3296                0               0        0.0927037        -24.4299                0               0
76.98                  0.0618935        -6.63862                0               0          0.31885         142.387                0               0
                       0.0910196        -27.1305                0               0         0.927882         50.6475                0               0
                        0.318853         142.387                0               0        0.0617571        -6.62354                0               0
                        0.927887         50.6503                0               0        0.0910882        -26.9957                0               0
77.025                 0.0572461        -4.40951                0               0         0.316173         140.879                0               0
                       0.0892539        -29.6303                0               0         0.922592         49.0317                0               0
                        0.316176         140.879                0               0        0.0571118        -4.38553                0               0
                        0.922599         49.0344                0               0        0.0893191        -29.4936                0               0
77.07                  0.0530276        -1.36197                0               0         0.313116         139.445                0               0
                       0.0873824        -32.0607                0               0         0.916931         47.4754                0               0
                         0.31312         139.445                0               0        0.0528964        -1.32612                0               0
                        0.916939          47.478                0               0        0.0874439        -31.9218                0               0
77.115                 0.0493612         2.52746                0               0         0.309772         138.091                0               0
                       0.0854546        -34.4223                0               0           0.9112         45.9655                0               0
                        0.309775         138.091                0               0        0.0492343         2.57833                0               0
                        0.911206         45.9679                0               0        0.0855122        -34.2808                0               0
77.16                    0.04635         7.20893                0               0         0.306286         136.818                0               0
                       0.0835141        -36.7187                0               0         0.905528         44.4889                0               0
                        0.306289         136.818                0               0         0.046229         7.27761                0               0
                        0.905534         44.4913                0               0        0.0835678        -36.5744                0               0
77.205                 0.0440641         12.5508                0               0         0.302823         135.618                0               0