! TOUCHSTONE file generated by CST MICROWAVE STUDIO
! Date and time: Mon Jun 21 17:07:08 2021
! Project name: HIPS_d_sweep.cst
! Parameters = {a=0.735; b=0.393; d=22.0302; fmax=120; fmin=75; phi=0; theta=0}
! Header version: 2018
! Port assignment regex: !\s*Touchstone port\s*([0-9]+)\s*=\s*(CST MWS port|CST DS port)\s*([0-9]+|Zmin|Zmax)\s*\(\"(.*)\"\)(\s*mode\s*([0-9]+))?.*
! Touchstone port assignment:
! Touchstone port 1 = CST MWS port Zmin ("") mode 1
! Touchstone port 2 = CST MWS port Zmin ("") mode 2
! Touchstone port 3 = CST MWS port Zmax ("") mode 1
! Touchstone port 4 = CST MWS port Zmax ("") mode 2
! S-Parameters are not renormalized. Unphysical impedance of 0 will be written to the file.
# GHz S MA R 0
75                      0.159195        -4.24812                0               0         0.138447         176.682                0               0
                       0.0592061          15.341                0               0         0.975694         82.9141                0               0
                        0.138447         176.683                0               0         0.159228        -4.18521                0               0
                        0.975697         82.9129                0               0        0.0591842         15.3516                0               0
75.045                   0.15698        -4.76381                0               0         0.142398         175.792                0               0
                       0.0597446         14.6362                0               0         0.976017          82.347                0               0
                        0.142398         175.792                0               0         0.157013        -4.69925                0               0
                        0.976021         82.3458                0               0        0.0597217          14.647                0               0
75.09                   0.154535        -5.35776                0               0          0.14593         174.911                0               0
                       0.0602692          13.817                0               0         0.975991         81.6459                0               0
                         0.14593         174.912                0               0         0.154569        -5.29137                0               0
                        0.975995         81.6446                0               0        0.0602453         13.8276                0               0
75.135                  0.151854        -6.03033                0               0         0.149022         174.006                0               0
                       0.0607722         12.8735                0               0         0.975813         80.8223                0               0
                        0.149022         174.007                0               0         0.151889        -5.96193                0               0
                        0.975817          80.821                0               0        0.0607472         12.8836                0               0
75.18                   0.148929        -6.78165                0               0         0.151678         173.048                0               0
                       0.0612443         11.7964                0               0         0.975619         79.8875                0               0
                        0.151678         173.049                0               0         0.148965          -6.711                0               0
                        0.975623         79.8863                0               0        0.0612181         11.8058                0               0
75.225                  0.145752        -7.61148                0               0         0.153914         172.017                0               0
                       0.0616743         10.5774                0               0         0.975503         78.8521                0               0
                        0.153913         172.017                0               0         0.145788        -7.53832                0               0
                        0.975506         78.8508                0               0        0.0616468          10.586                0               0
75.27                   0.142312        -8.51923                0               0         0.155757         170.898                0               0
                       0.0620492         9.20951                0               0         0.975517         77.7254                0               0
                        0.155756         170.898                0               0          0.14235        -8.44322                0               0
                        0.975519         77.7241                0               0        0.0620204         9.21703                0               0
75.315                  0.138601        -9.50381                0               0         0.157239         169.685                0               0
                       0.0623548         7.68744                0               0         0.975689         76.5157                0               0
                        0.157237         169.686                0               0          0.13864        -9.42459                0               0
                         0.97569         76.5145                0               0        0.0623244         7.69389                0               0
75.36                   0.134608        -10.5636                0               0         0.158388         168.376                0               0
                       0.0625755         6.00823                0               0         0.976027         75.2303                0               0
                        0.158386         168.376                0               0         0.134648        -10.4807                0               0
                        0.976027         75.2291                0               0        0.0625436         6.01364                0               0
75.405                  0.130322        -11.6962                0               0         0.159231          166.97                0               0
                       0.0626959         4.17146                0               0         0.976523         73.8756                0               0
                        0.159229          166.97                0               0         0.130363        -11.6092                0               0
                        0.976522         73.8743                0               0        0.0626624         4.17589                0               0
75.45                   0.125735        -12.8986                0               0         0.159793         165.473                0               0
                       0.0627008         2.17944                0               0         0.977159         72.4567                0               0
                        0.159791         165.473                0               0         0.125777        -12.8068                0               0
                        0.977158         72.4554                0               0        0.0626658         2.18301                0               0
75.495                  0.120838        -14.1666                0               0          0.16009         163.888                0               0
                        0.062577       0.0372075                0               0         0.977912         70.9782                0               0
                        0.160088         163.888                0               0         0.120881        -14.0693                0               0
                         0.97791         70.9769                0               0        0.0625405       0.0400583                0               0
75.54                   0.115624        -15.4949                0               0         0.160137         162.223                0               0
                       0.0623137        -2.24772                0               0         0.978751         69.4437                0               0
                        0.160134         162.223                0               0         0.115669        -15.3913                0               0
                        0.978749         69.4424                0               0        0.0622759        -2.24545                0               0
75.585                  0.110091        -16.8768                0               0         0.159943         160.483                0               0
                       0.0619038        -4.66587                0               0         0.979648         67.8565                0               0
                         0.15994         160.483                0               0         0.110138        -16.7658                0               0
                        0.979645         67.8552                0               0        0.0618649        -4.66403                0               0
75.63                   0.104238         -18.304                0               0         0.159515         158.676                0               0
                       0.0613441        -7.20649                0               0          0.98057         66.2189                0               0
                        0.159512         158.676                0               0         0.104286        -18.1845                0               0
                        0.980568         66.2176                0               0        0.0613044        -7.20499                0               0
75.675                  0.098066        -19.7659                0               0         0.158856         156.808                0               0
                       0.0606361        -9.85838                0               0          0.98149         64.5331                0               0
                        0.158854         156.808                0               0        0.0981154        -19.6364                0               0
                        0.981488         64.5317                0               0        0.0605958        -9.85718                0               0
75.72                  0.0915822        -21.2496                0               0          0.15797         154.885                0               0
                       0.0597851        -12.6108                0               0         0.982381         62.8005                0               0
                        0.157968         154.885                0               0        0.0916336        -21.1081                0               0
                        0.982379          62.799                0               0        0.0597446        -12.6099                0               0
75.765                 0.0847967        -22.7383                0               0         0.156858         152.912                0               0
                          0.0588        -15.4542                0               0         0.983224         61.0224                0               0
                        0.156856         152.912                0               0        0.0848504        -22.5825                0               0
                        0.983222         61.0209                0               0        0.0587594        -15.4537                0               0
75.81                  0.0777237        -24.2104                0               0         0.155521         150.895                0               0
                       0.0576921        -18.3809                0               0         0.984003            59.2                0               0
                        0.155519         150.895                0               0          0.07778        -24.0373                0               0
                        0.984002         59.1985                0               0        0.0576517        -18.3808                0               0
75.855                 0.0703814        -25.6368                0               0         0.153961         148.838                0               0
                       0.0564744        -21.3854                0               0         0.984713         57.3341                0               0
                        0.153958         148.838                0               0        0.0704408        -25.4422                0               0
                        0.984712         57.3326                0               0        0.0564342        -21.3859                0               0
75.9                   0.0627915         -26.976                0               0         0.152181         146.744                0               0
                         0.05516        -24.4646                0               0         0.985355         55.4259                0               0
                        0.152179         146.744                0               0        0.0628547        -26.7544                0               0
                        0.985355         55.4244                0               0        0.0551202        -24.4657                0               0
75.945                 0.0549795        -28.1658                0               0         0.150187         144.614                0               0
                       0.0537617        -27.6174                0               0          0.98594         53.4767                0               0
                        0.150185         144.614                0               0        0.0550473        -27.9089                0               0
                        0.985941         53.4752                0               0        0.0537223        -27.6194                0               0
75.99                  0.0469744        -29.1032                0               0         0.147988         142.452                0               0
                       0.0522911        -30.8449                0               0         0.986488         51.4882                0               0
                        0.147986         142.452                0               0        0.0470483        -28.7991                0               0
                        0.986489         51.4867                0               0         0.052252        -30.8478                0               0
76.035                 0.0388106        -29.6016                0               0         0.145595         140.257                0               0
                        0.050758        -34.1494                0               0         0.987024         49.4629                0               0
                        0.145593         140.257                0               0        0.0388927        -29.2308                0               0
                        0.987025         49.4613                0               0        0.0507193        -34.1535                0               0
76.08                   0.030533        -29.2733                0               0         0.143024          138.03                0               0
                       0.0491706        -37.5345                0               0         0.987579         47.4039                0               0
                        0.143022          138.03                0               0        0.0306273         -28.802                0               0
                        0.987579         47.4024                0               0        0.0491322        -37.5397                0               0
76.125                 0.0222162        -27.1525                0               0         0.140297         135.772                0               0
                       0.0475354        -41.0039                0               0         0.988178         45.3156                0               0
                        0.140295         135.772                0               0        0.0223306        -26.5163                0               0
                        0.988179         45.3141                0               0        0.0474974        -41.0103                0               0
76.17                  0.0140534        -20.0485                0               0         0.137438         133.485                0               0
                       0.0458573        -44.5613                0               0         0.988845         43.2031                0               0
                        0.137436         133.485                0               0        0.0142085         -19.122                0               0
                        0.988845         43.2015                0               0        0.0458196        -44.5691                0               0
76.215                0.00705938         8.20596                0               0         0.134473         131.172                0               0
                       0.0441403          -48.21                0               0         0.989586         41.0724                0               0
                        0.134472         131.171                0               0       0.00731185         9.16435                0               0
                        0.989586         41.0708                0               0         0.044103         -48.219                0               0
76.26                 0.00740151         80.8834                0               0         0.131434         128.836                0               0
                       0.0423877        -51.9521                0               0         0.990392         38.9301                0               0
                        0.131432         128.836                0               0       0.00759062         79.2758                0               0
                        0.990391         38.9285                0               0        0.0423509        -51.9626                0               0
76.305                 0.0146634         106.623                0               0         0.128347         126.488                0               0
                       0.0406026        -55.7888                0               0         0.991232          36.783                0               0
                        0.128345         126.487                0               0        0.0147319         105.541                0               0
                        0.991232         36.7814                0               0        0.0405663        -55.8008                0               0
76.35                  0.0230579         113.165                0               0          0.12524         124.136                0               0
                       0.0387885        -59.7201                0               0         0.992055         34.6376                0               0
                        0.125238         124.135                0               0        0.0230831         112.451                0               0
                        0.992054         34.6359                0               0        0.0387529        -59.7337                0               0
76.395                 0.0316895         115.036                0               0         0.122136         121.794                0               0
                       0.0369494        -63.7445                0               0         0.992792         32.4996                0               0
                        0.122134         121.794                0               0        0.0316942          114.51                0               0
                        0.992791         32.4979                0               0        0.0369146        -63.7598                0               0
76.44                  0.0403782          115.17                0               0          0.11905         119.478                0               0
                       0.0350906        -67.8596                0               0         0.993359          30.374                0               0
                        0.119048         119.478                0               0        0.0403711         114.753                0               0
                        0.993358         30.3723                0               0        0.0350566        -67.8769                0               0
76.485                 0.0490497         114.468                0               0         0.115996         117.206                0               0
                       0.0332181        -72.0622                0               0          0.99367         28.2645                0               0
                        0.115994         117.205                0               0         0.049035         114.123                0               0
                        0.993669         28.2627                0               0        0.0331852        -72.0818                0               0
76.53                  0.0576551         113.295                0               0         0.112979         114.995                0               0
                       0.0313394         -76.349                0               0          0.99364         26.1735                0               0
                        0.112977         114.994                0               0        0.0576352             113                0               0
                        0.993639         26.1717                0               0        0.0313077        -76.3709                0               0
76.575                 0.0661524         111.824                0               0         0.110001         112.863                0               0
                       0.0294631        -80.7165                0               0          0.99319         24.1028                0               0
                        0.109999         112.862                0               0        0.0661289         111.567                0               0
                        0.993188          24.101                0               0        0.0294326        -80.7413                0               0
76.62                  0.0745014         110.152                0               0         0.107065         110.826                0               0
                       0.0275986        -85.1628                0               0         0.992255         22.0531                0               0
                        0.107063         110.826                0               0        0.0744753         109.922                0               0
                        0.992254         22.0513                0               0        0.0275693        -85.1907                0               0
76.665                 0.0826627         108.333                0               0          0.10417         108.902                0               0
                       0.0257559        -89.6874                0               0         0.990786         20.0248                0               0
                        0.104168         108.901                0               0         0.082635         108.126                0               0
                        0.990784         20.0231                0               0        0.0257279        -89.7188                0               0
76.71                  0.0905979         106.406                0               0         0.101319         107.102                0               0
                       0.0239454        -94.2925                0               0         0.988748         18.0182                0               0
                        0.101317         107.102                0               0        0.0905693         106.217                0               0
                        0.988746         18.0165                0               0        0.0239188        -94.3278                0               0
76.755                 0.0982712         104.398                0               0        0.0985172         105.441                0               0
                       0.0221774        -98.9841                0               0         0.986121         16.0333                0               0
                       0.0985156          105.44                0               0        0.0982421         104.224                0               0
                        0.986119         16.0315                0               0        0.0221522        -99.0238                0               0
76.8                     0.10565          102.33                0               0        0.0957744         103.928                0               0
                        0.020462        -103.773                0               0         0.982901         14.0702                0               0
                        0.095773         103.928                0               0         0.105621         102.169                0               0
                        0.982898         14.0685                0               0        0.0204381        -103.817                0               0
76.845                  0.112707         100.221                0               0        0.0931031         102.573                0               0
                       0.0188086        -108.674                0               0         0.979094         12.1296                0               0
                       0.0931019         102.572                0               0         0.112679          100.07                0               0
                        0.979091         12.1279                0               0        0.0187861        -108.725                0               0
76.89                   0.119422         98.0847                0               0        0.0905195         101.381                0               0
                       0.0172259        -113.712                0               0         0.974719         10.2121                0               0
                       0.0905185          101.38                0               0         0.119395         97.9428                0               0
                        0.974716         10.2104                0               0        0.0172048        -113.769                0               0
76.935                  0.125779          95.937                0               0        0.0880427         100.356                0               0
                        0.015722        -118.917                0               0         0.969803         8.31864                0               0
                       0.0880419         100.355                0               0         0.125753         95.8031                0               0
                        0.969799         8.31697                0               0        0.0157023         -118.98                0               0
76.98                   0.131771         93.7905                0               0        0.0856939         99.4989                0               0
                       0.0143042        -124.329                0               0         0.964381         6.45055                0               0
                       0.0856933         99.4983                0               0         0.131747         93.6637                0               0
                        0.964376         6.44888                0               0        0.0142859        -124.399                0               0
77.025                  0.137397         91.6572                0               0        0.0834947         98.8064                0               0
                       0.0129793        -129.996                0               0         0.958496         4.60925                0               0
                       0.0834943         98.8058                0               0         0.137374         91.5366                0               0
                        0.958491         4.60759                0               0        0.0129624        -130.075                0               0
77.07                   0.142661         89.5474                0               0        0.0814665         98.2706                0               0
                       0.0117537        -135.977                0               0         0.952198         2.79636                0               0
                       0.0814663           98.27                0               0          0.14264         89.4325                0               0
                        0.952193         2.79471                0               0        0.0117384        -136.066                0               0
77.115                  0.147572         87.4703                0               0        0.0796284          97.879                0               0
                        0.010634        -142.338                0               0         0.945542         1.01355                0               0
                       0.0796282         97.8784                0               0         0.147554         87.3605                0               0
                        0.945537          1.0119                0               0        0.0106202        -142.437                0               0
77.16                   0.152145         85.4336                0               0         0.077996         97.6145                0               0
                      0.00962685        -149.148                0               0          0.93859       -0.737531                0               0
                        0.077996         97.6139                0               0         0.152129         85.3284                0               0
                        0.938585       -0.739176                0               0       0.00961464        -149.259                0               0
77.205                  0.156396         83.4434                0               0        0.0765807         97.4556                0               0