! TOUCHSTONE file generated by CST MICROWAVE STUDIO
! Date and time: Mon Jun 21 17:07:25 2021
! Project name: HIPS_d_sweep.cst
! Parameters = {a=0.735; b=0.393; d=24.0402; fmax=120; fmin=75; phi=0; theta=0}
! Header version: 2018
! Port assignment regex: !\s*Touchstone port\s*([0-9]+)\s*=\s*(CST MWS port|CST DS port)\s*([0-9]+|Zmin|Zmax)\s*\(\"(.*)\"\)(\s*mode\s*([0-9]+))?.*
! Touchstone port assignment:
! Touchstone port 1 = CST MWS port Zmin ("") mode 1
! Touchstone port 2 = CST MWS port Zmin ("") mode 2
! Touchstone port 3 = CST MWS port Zmax ("") mode 1
! Touchstone port 4 = CST MWS port Zmax ("") mode 2
! S-Parameters are not renormalized. Unphysical impedance of 0 will be written to the file.
# GHz S MA R 0
75                     0.0697929         117.186                0               0        0.0028831        -66.3774                0               0
                      0.00245296         -69.032                0               0         0.997557        -152.799                0               0
                      0.00288379        -66.3838                0               0        0.0697492         117.228                0               0
                        0.997554        -152.801                0               0       0.00244208        -65.9884                0               0
75.045                 0.0721464         116.462                0               0       0.00691214        -65.7342                0               0
                      0.00313588        -74.1164                0               0         0.997404        -153.515                0               0
                      0.00691192        -65.7382                0               0         0.072104         116.505                0               0
                        0.997401        -153.517                0               0       0.00311433        -71.7404                0               0
75.09                  0.0749292         115.643                0               0        0.0105264         -66.078                0               0
                      0.00363985         -78.195                0               0         0.997178        -154.324                0               0
                       0.0105259        -66.0809                0               0        0.0748878         115.686                0               0
                        0.997176        -154.326                0               0       0.00361056          -76.16                0               0
75.135                 0.0781216         114.731                0               0        0.0137147        -66.6963                0               0
                      0.00397514        -82.1357                0               0         0.996891        -155.226                0               0
                       0.0137142        -66.6985                0               0        0.0780809         114.774                0               0
                        0.996888        -155.227                0               0        0.0039389        -80.2892                0               0
75.18                  0.0817043         113.729                0               0        0.0164718        -67.4832                0               0
                      0.00415374        -86.3418                0               0         0.996551        -156.219                0               0
                       0.0164717        -67.4848                0               0        0.0816643         113.772                0               0
                        0.996548        -156.221                0               0       0.00411036        -84.5986                0               0
75.225                 0.0856583         112.639                0               0        0.0187979        -68.4022                0               0
                      0.00418877        -91.1086                0               0         0.996164        -157.304                0               0
                       0.0187981        -68.4034                0               0        0.0856191         112.682                0               0
                        0.996161        -157.306                0               0       0.00413741        -89.4151                0               0
75.27                  0.0899644         111.463                0               0        0.0206973         -69.433                0               0
                      0.00409557        -96.7499                0               0         0.995734        -158.478                0               0
                       0.0206978        -69.4337                0               0        0.0899259         111.506                0               0
                        0.995731         -158.48                0               0       0.00403482        -95.0725                0               0
75.315                 0.0946027         110.204                0               0        0.0221784          -70.56                0               0
                      0.00389412        -103.683                0               0         0.995264         -159.74                0               0
                       0.0221792        -70.5604                0               0        0.0945651         110.246                0               0
                         0.99526        -159.742                0               0       0.00382194        -102.009                0               0
75.36                  0.0995524         108.863                0               0        0.0232528        -71.7687                0               0
                       0.0036135        -112.515                0               0         0.994752        -161.087                0               0
                       0.0232537        -71.7689                0               0        0.0995156         108.905                0               0
                        0.994748        -161.088                0               0       0.00352725        -110.869                0               0
75.405                  0.104791         107.442                0               0         0.023935        -73.0443                0               0
                      0.00329996        -124.113                0               0         0.994197        -162.516                0               0
                       0.0239359        -73.0442                0               0         0.104755         107.484                0               0
                        0.994193        -162.518                0               0       0.00319686        -122.599                0               0
75.45                   0.110296         105.945                0               0        0.0242416        -74.3705                0               0
                      0.00302925        -139.464                0               0         0.993598        -164.025                0               0
                       0.0242423        -74.3703                0               0         0.110261         105.987                0               0
                        0.993593        -164.026                0               0       0.00290844        -138.337                0               0
75.495                  0.116039         104.373                0               0        0.0241914        -75.7292                0               0
                      0.00291411        -158.819                0               0          0.99295        -165.609                0               0
                       0.0241919         -75.729                0               0         0.116005         104.415                0               0
                        0.992946         -165.61                0               0       0.00278117        -158.458                0               0
75.54                   0.121996          102.73                0               0        0.0238049        -77.0993                0               0
                      0.00307407          179.85                0               0         0.992251        -167.265                0               0
                        0.023805        -77.0991                0               0         0.121963         102.772                0               0
                        0.992247        -167.267                0               0       0.00294316         179.302                0               0
75.585                  0.128135         101.018                0               0        0.0231037        -78.4554                0               0
                       0.0035605         160.239                0               0         0.991499         -168.99                0               0
                       0.0231035        -78.4552                0               0         0.128103          101.06                0               0
                        0.991495        -168.991                0               0       0.00344523         159.126                0               0
75.63                   0.134425         99.2405                0               0        0.0221109        -79.7655                0               0
                      0.00433462         144.441                0               0         0.990691        -170.779                0               0
                       0.0221103        -79.7655                0               0         0.134394         99.2823                0               0
                        0.990687         -170.78                0               0       0.00423956         143.187                0               0
75.675                  0.140833         97.4012                0               0        0.0208504        -80.9881                0               0
                      0.00532551         132.246                0               0         0.989827        -172.627                0               0
                       0.0208494        -80.9882                0               0         0.140803         97.4431                0               0
                        0.989823        -172.629                0               0         0.005249         131.065                0               0
75.72                   0.147325         95.5041                0               0        0.0193471        -82.0656                0               0
                      0.00647322         122.683                0               0         0.988907        -174.531                0               0
                       0.0193458        -82.0659                0               0         0.147296          95.546                0               0
                        0.988903        -174.532                0               0       0.00641205         121.635                0               0
75.765                  0.153864         93.5532                0               0        0.0176271        -82.9146                0               0
                      0.00773502         114.896                0               0         0.987932        -176.486                0               0
                       0.0176255        -82.9151                0               0         0.153836         93.5952                0               0
                        0.987928        -176.487                0               0       0.00768626         113.983                0               0
75.81                   0.160413         91.5531                0               0         0.015718        -83.4053                0               0
                      0.00908008         108.301                0               0         0.986907        -178.486                0               0
                       0.0157162         -83.406                0               0         0.160386         91.5952                0               0
                        0.986903        -178.487                0               0       0.00904149         107.505                0               0
75.855                  0.166936         89.5084                0               0        0.0136503        -83.3218                0               0
                       0.0104846          102.52                0               0         0.985835         179.472                0               0
                       0.0136485        -83.3227                0               0          0.16691         89.5506                0               0
                        0.985832          179.47                0               0        0.0104545         101.823                0               0
75.9                    0.173395         87.4238                0               0        0.0114605        -82.2724                0               0
                        0.011929           97.31                0               0         0.984724         177.393                0               0
                       0.0114587        -82.2732                0               0          0.17337         87.4662                0               0
                        0.984721         177.391                0               0        0.0119062         96.6944                0               0
75.945                  0.179755         85.3044                0               0       0.00919893         -79.469                0               0
                       0.0133963         92.5128                0               0         0.983581         175.281                0               0
                      0.00919723        -79.4693                0               0         0.179731          85.347                0               0
                        0.983577          175.28                0               0        0.0133797         91.9643                0               0
75.99                   0.185981         83.1551                0               0       0.00695401        -73.1234                0               0
                       0.0148712         88.0225                0               0         0.982413         173.142                0               0
                       0.0069525        -73.1223                0               0         0.185958         83.1978                0               0
                         0.98241         173.141                0               0        0.0148602         87.5298                0               0
76.035                   0.19204         80.9807                0               0       0.00493748        -58.7729                0               0
                       0.0163402          83.767                0               0         0.981232          170.98                0               0
                      0.00493628        -58.7677                0               0         0.192017         81.0236                0               0
                        0.981228         170.979                0               0        0.0163342          83.321                0               0
76.08                   0.197901          78.786                0               0       0.00375452        -28.3056                0               0
                        0.017791         79.6962                0               0         0.980045           168.8                0               0
                      0.00375392        -28.2934                0               0          0.19788         78.8292                0               0
                        0.980041         168.799                0               0        0.0177894         79.2895                0               0
76.125                  0.203537         76.5757                0               0       0.00430134         8.53882                0               0
                       0.0192124         75.7743                0               0         0.978862         166.605                0               0
                      0.00430141          8.5485                0               0         0.203517         76.6191                0               0
                        0.978858         166.603                0               0         0.019215         75.4011                0               0
76.17                   0.208923          74.354                0               0       0.00617692         29.0995                0               0
                       0.0205947         71.9758                0               0         0.977692         164.399                0               0
                      0.00617723         29.1031                0               0         0.208904         74.3978                0               0
                        0.977689         164.398                0               0         0.020601         71.6312                0               0
76.215                  0.214037         72.1252                0               0       0.00855524         38.1697                0               0
                       0.0219289         68.2815                0               0         0.976545         162.188                0               0
                      0.00855561         38.1704                0               0         0.214019         72.1692                0               0
                        0.976541         162.187                0               0        0.0219389         67.9617                0               0
76.26                    0.21886         69.8931                0               0        0.0111063         42.2097                0               0
                       0.0232076         64.6779                0               0         0.975426         159.974                0               0
                       0.0111067         42.2092                0               0         0.218843         69.9374                0               0
                        0.975422         159.973                0               0        0.0232208         64.3795                0               0
76.305                  0.223376         67.6612                0               0         0.013711          43.886                0               0
                        0.024424         61.1547                0               0         0.974344         157.762                0               0
                       0.0137116          43.885                0               0          0.22336         67.7058                0               0
                         0.97434         157.761                0               0        0.0244404         60.8751                0               0
76.35                   0.227571         65.4329                0               0        0.0163147         44.3124                0               0
                       0.0255724         57.7053                0               0         0.973304         155.555                0               0
                       0.0163154         44.3114                0               0         0.227556          65.478                0               0
                          0.9733         155.554                0               0        0.0255917         57.4422                0               0
76.395                  0.231435         63.2118                0               0         0.018886         44.0152                0               0
                        0.026648         54.3258                0               0         0.972312         153.356                0               0
                       0.0188869         44.0142                0               0         0.231421         63.2572                0               0
                        0.972309         153.355                0               0        0.0266701         54.0773                0               0
76.44                   0.234959         61.0011                0               0        0.0214047         43.2731                0               0
                       0.0276466         51.0152                0               0         0.971379         151.168                0               0
                       0.0214058         43.2724                0               0         0.234946          61.047                0               0
                        0.971375         151.167                0               0        0.0276712         50.7797                0               0
76.485                  0.238137         58.8045                0               0         0.023858         42.2502                0               0
                       0.0285646         47.7759                0               0         0.970514         148.994                0               0
                       0.0238592         42.2498                0               0         0.238125         58.8508                0               0
                        0.970511         148.992                0               0        0.0285916         47.5519                0               0
76.53                   0.240963         56.6262                0               0        0.0262389         41.0526                0               0
                        0.029399         44.6133                0               0         0.969735         146.835                0               0
                       0.0262402         41.0524                0               0         0.240952         56.6729                0               0
                        0.969733         146.834                0               0        0.0294282         44.3997                0               0
76.575                  0.243434         54.4707                0               0         0.028546          39.756                0               0
                       0.0301475         41.5368                0               0          0.96907         144.694                0               0
                        0.028547         39.7556                0               0         0.243424         54.5179                0               0
                        0.969068         144.693                0               0        0.0301785         41.3325                0               0
76.62                   0.245549         52.3432                0               0        0.0307815         38.4178                0               0
                       0.0308086         38.5584                0               0          0.96855         142.571                0               0
                        0.030782         38.4169                0               0         0.245541         52.3908                0               0
                         0.96855          142.57                0               0        0.0308412         38.3623                0               0
76.665                  0.247314         50.2491                0               0         0.032946           37.08                0               0
                       0.0313836         35.6896                0               0         0.968214         140.469                0               0
                       0.0329458          37.078                0               0         0.247307         50.2971                0               0
                        0.968214         140.468                0               0        0.0314173         35.5011                0               0
76.71                   0.248745         48.1916                0               0        0.0350238         35.7579                0               0
                       0.0318805         32.9321                0               0         0.968073         138.388                0               0
                       0.0350231         35.7543                0               0         0.248739         48.2398                0               0
                        0.968073         138.387                0               0        0.0319151         32.7505                0               0
76.755                  0.249883         46.1658                0               0        0.0369568         34.4013                0               0
                       0.0323193         30.2474                0               0         0.968042         136.335                0               0
                       0.0369562         34.3964                0               0         0.249879         46.2142                0               0
                        0.968043         136.334                0               0        0.0323548         30.0727                0               0
76.8                    0.250787         44.1387                0               0        0.0386392         32.8087                0               0
                       0.0327134         27.4884                0               0         0.967785         134.319                0               0
                         0.03864         32.8051                0               0         0.250783         44.1875                0               0
                        0.967786         134.318                0               0        0.0327508           27.32                0               0
76.845                  0.251298          42.019                0               0        0.0400356         30.5923                0               0
                       0.0329524         24.4084                0               0         0.966519         132.351                0               0
                       0.0400373         30.5933                0               0         0.251293         42.0694                0               0
                         0.96652          132.35                0               0        0.0329927         24.2434                0               0
76.89                   0.250525         39.7991                0               0        0.0413555          27.505                0               0
                       0.0327801         21.1397                0               0         0.963148          130.42                0               0
                       0.0413557         27.5101                0               0         0.250529         39.8512                0               0
                        0.963151         130.419                0               0        0.0328216          20.976                0               0
76.935                  0.248367         37.7579                0               0        0.0428423         23.8337                0               0
                       0.0322488         18.1809                0               0         0.957171         128.493                0               0
                       0.0428411         23.8388                0               0         0.248376         37.8091                0               0
                        0.957177         128.491                0               0        0.0322911         18.0202                0               0
76.98                   0.245936         35.9222                0               0        0.0444671         20.0404                0               0
                       0.0315976         15.5761                0               0          0.94936         126.548                0               0
                       0.0444664         20.0439                0               0         0.245942         35.9735                0               0
                        0.949366         126.547                0               0        0.0316416          15.418                0               0
77.025                  0.243471         34.1618                0               0        0.0460745         16.3521                0               0
                       0.0309117         13.1618                0               0         0.940973         124.606                0               0
                       0.0460753         16.3546                0               0         0.243475         34.2142                0               0
                        0.940977         124.605                0               0        0.0309572          13.005                0               0
77.07                   0.240868         32.4324                0               0        0.0475644         12.8133                0               0
                       0.0301962         10.8571                0               0         0.932812         122.694                0               0
                       0.0475664         12.8154                0               0         0.240871         32.4859                0               0
                        0.932814         122.693                0               0        0.0302429         10.7009                0               0
77.115                  0.238075         30.7313                0               0        0.0489069         9.41063                0               0
                       0.0294479         8.64688                0               0         0.925141         120.824                0               0
                       0.0489097         9.41262                0               0         0.238079         30.7858                0               0
                        0.925144         120.823                0               0        0.0294953         8.49094                0               0
77.16                   0.235093         29.0654                0               0        0.0501075         6.12141                0               0
                        0.028667         6.54074                0               0          0.91795         118.995                0               0
                       0.0501106         6.12341                0               0         0.235098         29.1208                0               0
                        0.917953         118.994                0               0        0.0287148         6.38458                0               0
77.205                  0.231942         27.4416                0               0        0.0511827         2.92589                0               0