! TOUCHSTONE file generated by CST MICROWAVE STUDIO
! Date and time: Mon Jun 21 17:07:14 2021
! Project name: HIPS_d_sweep.cst
! Parameters = {a=0.735; b=0.393; d=22.9849; fmax=120; fmin=75; phi=0; theta=0}
! Header version: 2018
! Port assignment regex: !\s*Touchstone port\s*([0-9]+)\s*=\s*(CST MWS port|CST DS port)\s*([0-9]+|Zmin|Zmax)\s*\(\"(.*)\"\)(\s*mode\s*([0-9]+))?.*
! Touchstone port assignment:
! Touchstone port 1 = CST MWS port Zmin ("") mode 1
! Touchstone port 2 = CST MWS port Zmin ("") mode 2
! Touchstone port 3 = CST MWS port Zmax ("") mode 1
! Touchstone port 4 = CST MWS port Zmax ("") mode 2
! S-Parameters are not renormalized. Unphysical impedance of 0 will be written to the file.
# GHz S MA R 0
75                      0.237061         60.5702                0               0        0.0660198          64.832                0               0
                       0.0271708         96.8196                0               0         0.968871        -29.8235                0               0
                       0.0660188         64.8323                0               0         0.237069         60.5494                0               0
                        0.968869        -29.8233                0               0        0.0270479         96.4478                0               0
75.045                  0.237689          59.864                0               0        0.0695861         62.5331                0               0
                       0.0277301         97.1526                0               0         0.969922        -30.4672                0               0
                       0.0695664         62.5434                0               0         0.237699         59.8421                0               0
                        0.969917        -30.4673                0               0         0.027602         96.7953                0               0
75.09                   0.238239         59.1071                0               0        0.0732796           61.05                0               0
                       0.0283281         97.3576                0               0         0.970185        -31.1987                0               0
                       0.0732457         61.0574                0               0         0.238251         59.0844                0               0
                         0.97018         -31.199                0               0        0.0281959         97.0136                0               0
75.135                  0.238717         58.2948                0               0        0.0766361         60.2255                0               0
                       0.0289661         97.4087                0               0         0.969838        -32.0213                0               0
                       0.0766003         60.2252                0               0         0.238731         58.2717                0               0
                        0.969834        -32.0217                0               0        0.0288312         97.0766                0               0
75.18                   0.239132         57.4229                0               0        0.0793489         59.7769                0               0
                       0.0296445         97.2783                0               0         0.969053         -32.936                0               0
                       0.0793222         59.7718                0               0         0.239146         57.3994                0               0
                         0.96905        -32.9363                0               0        0.0295083         96.9563                0               0
75.225                  0.239493          56.487                0               0         0.081336         59.4331                0               0
                       0.0303625         96.9382                0               0         0.967991        -33.9419                0               0
                       0.0813228         59.4285                0               0         0.239506         56.4635                0               0
                        0.967989         -33.942                0               0        0.0302261         96.6242                0               0
75.27                   0.239813         55.4837                0               0        0.0826782          59.009                0               0
                       0.0311174         96.3607                0               0         0.966794        -35.0367                0               0
                       0.0826772         59.0091                0               0         0.239824         55.4603                0               0
                        0.966793        -35.0365                0               0        0.0309819         96.0527                0               0
75.315                  0.240105         54.4098                0               0        0.0835213         58.4098                0               0
                       0.0319041         95.5202                0               0         0.965584        -36.2165                0               0
                       0.0835284         58.4165                0               0         0.240113         54.3866                0               0
                        0.965583         -36.216                0               0        0.0317705         95.2161                0               0
75.36                   0.240384          53.263                0               0        0.0840091         57.6047                0               0
                       0.0327152         94.3952                0               0         0.964459        -37.4769                0               0
                         0.08402          57.618                0               0         0.240389         53.2401                0               0
                        0.964457        -37.4762                0               0        0.0325839         94.0933                0               0
75.405                  0.240665         52.0414                0               0        0.0842559         56.5987                0               0
                       0.0335402         92.9705                0               0         0.963494        -38.8128                0               0
                       0.0842673         56.6173                0               0         0.240664         52.0188                0               0
                        0.963491        -38.8119                0               0        0.0334116         92.6691                0               0
75.45                   0.240961          50.744                0               0        0.0843425         55.4126                0               0
                       0.0343663         91.2387                0               0         0.962742         -40.219                0               0
                       0.0843521         55.4349                0               0         0.240955         50.7216                0               0
                        0.962738        -40.2178                0               0        0.0342403          90.937                0               0
75.495                  0.241284         49.3698                0               0        0.0843223          54.073                0               0
                       0.0351782         89.2027                0               0         0.962238        -41.6898                0               0
                        0.084329         54.0971                0               0         0.241272         49.3477                0               0
                        0.962232        -41.6886                0               0        0.0350547         88.9004                0               0
75.54                   0.241644         47.9182                0               0        0.0842284         52.6068                0               0
                       0.0359601         86.8763                0               0         0.961996        -43.2203                0               0
                       0.0842317         52.6309                0               0         0.241628         47.8962                0               0
                         0.96199         -43.219                0               0        0.0358386         86.5737                0               0
75.585                   0.24205         46.3879                0               0        0.0840797         51.0395                0               0
                       0.0366964         84.2843                0               0         0.962019        -44.8052                0               0
                       0.0840797         51.0622                0               0         0.242029         46.3659                0               0
                        0.962011        -44.8039                0               0        0.0365767         83.9821                0               0
75.63                   0.242505         44.7765                0               0        0.0838852         49.3954                0               0
                       0.0373741         81.4612                0               0         0.962292        -46.4399                0               0
                       0.0838826         49.4153                0               0         0.242483         44.7542                0               0
                        0.962284        -46.4388                0               0        0.0372561         81.1606                0               0
75.675                   0.24301          43.079                0               0        0.0836465         47.6978                0               0
                        0.037984          78.449                0               0         0.962794        -48.1202                0               0
                       0.0836423         47.7138                0               0         0.242988          43.056                0               0
                        0.962786        -48.1192                0               0        0.0378677         78.1512                0               0
75.72                   0.243556         41.2855                0               0        0.0833591           45.97                0               0
                        0.038522         75.2934                0               0         0.963491        -49.8423                0               0
                       0.0833543         45.9812                0               0          0.24354         41.2612                0               0
                        0.963484        -49.8415                0               0        0.0384078         74.9995                0               0
75.765                  0.244114         39.3784                0               0        0.0830112         44.2358                0               0
                       0.0389893         72.0406                0               0         0.964343        -51.6028                0               0
                       0.0830075         44.2417                0               0         0.244108          39.351                0               0
                        0.964337        -51.6023                0               0        0.0388779          71.751                0               0
75.81                   0.244597         37.3277                0               0        0.0825832         42.5202                0               0
                       0.0393919          68.733                0               0         0.965301        -53.3988                0               0
                       0.0825824         42.5206                0               0         0.244606         37.2939                0               0
                        0.965298        -53.3986                0               0        0.0392839         68.4478                0               0
75.855                  0.244771         35.0919                0               0        0.0820442         40.8488                0               0
                       0.0397395          65.407                0               0         0.966314        -55.2282                0               0
                       0.0820481          40.844                0               0         0.244785         35.0456                0               0
                        0.966314        -55.2283                0               0        0.0396356         65.1257                0               0
75.9                    0.244084         32.6519                0               0        0.0813485         39.2452                0               0
                       0.0400432         62.0909                0               0         0.967321        -57.0893                0               0
                        0.081359         39.2362                0               0         0.244057          32.588                0               0
                        0.967326        -57.0896                0               0         0.039944         61.8125                0               0
75.945                  0.241718         30.1373                0               0        0.0804334         37.7259                0               0
                       0.0403147         58.8042                0               0         0.968261        -58.9813                0               0
                       0.0804519         37.7144                0               0          0.24157         30.0668                0               0
                        0.968272        -58.9819                0               0        0.0402205         58.5274                0               0
75.99                   0.237705         27.9158                0               0        0.0792213          36.291                0               0
                       0.0405638         55.5581                0               0         0.969071        -60.9046                0               0
                       0.0792477         36.2797                0               0         0.237462         27.8718                0               0
                         0.96909        -60.9054                0               0        0.0404748         55.2816                0               0
76.035                  0.233808          26.171                0               0        0.0776324         34.9119                0               0
                       0.0407981         52.3564                0               0         0.969694        -62.8608                0               0
                       0.0776648         34.9038                0               0         0.233623         26.1577                0               0
                         0.96972        -62.8617                0               0        0.0407141         52.0788                0               0
76.08                   0.231196         24.6074                0               0        0.0756137         33.5219                0               0
                       0.0410217         49.1969                0               0         0.970088        -64.8533                0               0
                       0.0756479         33.5194                0               0         0.231115         24.5985                0               0
                         0.97012         -64.854                0               0        0.0409424          48.917                0               0
76.125                   0.22945         22.9479                0               0        0.0731756         32.0214                0               0
                        0.041235         46.0733                0               0         0.970244        -66.8874                0               0
                       0.0732063         32.0249                0               0         0.229432         22.9291                0               0
                        0.970281        -66.8878                0               0          0.04116         45.7903                0               0
76.17                   0.227899         21.1313                0               0        0.0704143         30.3056                0               0
                       0.0414348         42.9765                0               0         0.970225        -68.9698                0               0
                       0.0704374         30.3135                0               0         0.227905         21.1011                0               0
                        0.970263        -68.9698                0               0        0.0413635         42.6897                0               0
76.215                  0.226165         19.1847                0               0        0.0674909         28.3082                0               0
                        0.041614         39.8964                0               0         0.970196        -71.1067                0               0
                       0.0675048         28.3174                0               0         0.226175         19.1455                0               0
                        0.970229        -71.1062                0               0        0.0415461         39.6056                0               0
76.26                   0.224077         17.1453                0               0        0.0645725          26.031                0               0
                       0.0417626         36.8237                0               0         0.970447        -73.2987                0               0
                       0.0645786         26.0384                0               0         0.224084         17.0994                0               0
                         0.97047        -73.2978                0               0        0.0416976         36.5287                0               0
76.305                  0.221563         15.0425                0               0        0.0617767          23.539                0               0
                       0.0418677         33.7505                0               0         0.971337        -75.5342                0               0
                       0.0617779         23.5431                0               0         0.221567         14.9916                0               0
                        0.971346        -75.5334                0               0        0.0418053         33.4515                0               0
76.35                   0.218594         12.8983                0               0        0.0591521         20.9297                0               0
                       0.0419142         30.6723                0               0         0.973122        -77.7859                0               0
                        0.059151         20.9305                0               0         0.218594         12.8435                0               0
                        0.973119        -77.7856                0               0        0.0418544         30.3697                0               0
76.395                   0.21516         10.7299                0               0        0.0566935         18.3002                0               0
                       0.0418863         27.5886                0               0         0.975745        -80.0176                0               0
                       0.0566916         18.2985                0               0         0.215157         10.6718                0               0
                        0.975737        -80.0181                0               0        0.0418292         27.2825                0               0
76.44                   0.211261         8.55175                0               0        0.0543682           15.73                0               0
                       0.0417682         24.5036                0               0         0.978799        -82.2014                0               0
                       0.0543664         15.7269                0               0         0.211257         8.49061                0               0
                        0.978794        -82.2024                0               0        0.0417138         24.1943                0               0
76.485                  0.206907         6.37663                0               0         0.052138         13.2777                0               0
                       0.0415454         21.4265                0               0         0.981731        -84.3284                0               0
                       0.0521366         13.2743                0               0         0.206901         6.31257                0               0
                        0.981731        -84.3295                0               0        0.0414941          21.114                0               0
76.53                   0.202113         4.21671                0               0        0.0499705         10.9856                0               0
                       0.0412065         18.3718                0               0         0.984091        -86.4066                0               0
                       0.0499694         10.9827                0               0         0.202107          4.1497                0               0
                        0.984096        -86.4075                0               0        0.0411585          18.056                0               0
76.575                  0.196902         2.08378                0               0        0.0478436         8.88605                0               0
                       0.0407438         15.3584                0               0         0.985639        -88.4507                0               0
                       0.0478427         8.88403                0               0         0.196897         2.01366                0               0
                        0.985646        -88.4513                0               0        0.0406994         15.0387                0               0
76.62                   0.191303       -0.010533                0               0        0.0457458         7.00655                0               0
                       0.0401552         12.4085                0               0         0.986309         -90.474                0               0
                       0.0457449         7.00572                0               0         0.191297       -0.083978                0               0
                        0.986314        -90.4743                0               0        0.0401145         12.0845                0               0
76.665                  0.185349        -2.05466                0               0        0.0436747         5.37357                0               0
                       0.0394438         9.54681                0               0         0.986129        -92.4855                0               0
                       0.0436739         5.37401                0               0         0.185344        -2.13172                0               0
                        0.986131        -92.4855                0               0        0.0394067         9.21763                0               0
76.71                   0.179079        -4.03705                0               0        0.0416361         4.01446                0               0
                       0.0386184         6.79856                0               0         0.985165        -94.4899                0               0
                       0.0416354         4.01611                0               0         0.179073        -4.11807                0               0
                        0.985163        -94.4897                0               0        0.0385845         6.46332                0               0
76.755                  0.172535        -5.94622                0               0        0.0396419         2.95828                0               0
                       0.0376925         4.18793                0               0         0.983486        -96.4888                0               0
                       0.0396413         2.96096                0               0         0.172529        -6.03156                0               0
                        0.983481        -96.4884                0               0        0.0376614         3.84577                0               0
76.8                    0.165761        -7.77064                0               0        0.0377095         2.23534                0               0
                       0.0366835         1.73671                0               0         0.981158        -98.4818                0               0
                       0.0377092          2.2388                0               0         0.165753        -7.86071                0               0
                        0.981151        -98.4813                0               0        0.0366545         1.38683                0               0
76.845                  0.158803        -9.49878                0               0         0.035861         1.87577                0               0
                       0.0356109        -0.53692                0               0         0.978235        -100.467                0               0
                       0.0358609         1.87967                0               0         0.158794        -9.59402                0               0
                        0.978226        -100.467                0               0        0.0355832       -0.895147                0               0
76.89                   0.151707         -11.119                0               0        0.0341217         1.90664                0               0
                       0.0344953         -2.6191                0               0         0.974764        -102.444                0               0
                       0.0341219         1.91061                0               0         0.151695        -11.2198                0               0
                        0.974756        -102.443                0               0        0.0344681        -2.98607                0               0
76.935                  0.144519        -12.6193                0               0          0.03252         2.34766                0               0
                       0.0333567        -4.50061                0               0          0.97079        -104.408                0               0
                       0.0325204          2.3513                0               0         0.144503        -12.7263                0               0
                        0.970781        -104.407                0               0         0.033329        -4.87649                0               0
76.98                   0.137282        -13.9873                0               0        0.0310857         3.20547                0               0
                       0.0322134        -6.17681                0               0          0.96635        -106.357                0               0
                       0.0310862         3.20841                0               0         0.137262        -14.1009                0               0
                        0.966343        -106.357                0               0        0.0321847         -6.5615                0               0
77.025                  0.130037        -15.2101                0               0        0.0298484         4.46702                0               0
                       0.0310819        -7.64734                0               0         0.961485         -108.29                0               0
                       0.0298488         4.46895                0               0         0.130012        -15.3309                0               0
                         0.96148        -108.289                0               0        0.0310513        -8.04051                0               0
77.07                   0.122825        -16.2734                0               0        0.0288351         6.09333                0               0
                       0.0299757        -8.91553                0               0         0.956235        -110.203                0               0
                       0.0288353         6.09409                0               0         0.122794        -16.4019                0               0
                        0.956232        -110.202                0               0        0.0299427        -9.31668                0               0
77.115                  0.115681        -17.1616                0               0        0.0280678         8.01594                0               0
                       0.0289059        -9.98786                0               0         0.950642        -112.093                0               0
                       0.0280675         8.01553                0               0         0.115644        -17.2985                0               0
                        0.950642        -112.092                0               0          0.02887        -10.3963                0               0
77.16                   0.108639        -17.8572                0               0        0.0275602         10.1383                0               0
                       0.0278806        -10.8733                0               0         0.944752        -113.958                0               0
                       0.0275594         10.1369                0               0         0.108594         -18.003                0               0
                        0.944755        -113.958                0               0        0.0278416        -11.2882                0               0
77.205                   0.10173        -18.3398                0               0        0.0273161         12.3437                0               0