! TOUCHSTONE file generated by CST MICROWAVE STUDIO
! Date and time: Mon Jun 21 17:06:43 2021
! Project name: HIPS_d_sweep.cst
! Parameters = {a=0.735; b=0.393; d=18.8643; fmax=120; fmin=75; phi=0; theta=0}
! Header version: 2018
! Port assignment regex: !\s*Touchstone port\s*([0-9]+)\s*=\s*(CST MWS port|CST DS port)\s*([0-9]+|Zmin|Zmax)\s*\(\"(.*)\"\)(\s*mode\s*([0-9]+))?.*
! Touchstone port assignment:
! Touchstone port 1 = CST MWS port Zmin ("") mode 1
! Touchstone port 2 = CST MWS port Zmin ("") mode 2
! Touchstone port 3 = CST MWS port Zmax ("") mode 1
! Touchstone port 4 = CST MWS port Zmax ("") mode 2
! S-Parameters are not renormalized. Unphysical impedance of 0 will be written to the file.
# GHz S MA R 0
75                      0.172491         11.5254                0               0          0.33149        -175.512                0               0
                        0.100603         39.3185                0               0         0.922095         91.6144                0               0
                         0.33149        -175.512                0               0         0.172442         11.5416                0               0
                        0.922086         91.6144                0               0         0.100599         39.3288                0               0
75.045                   0.17086         11.2403                0               0         0.334693        -176.123                0               0
                        0.101135         38.5404                0               0         0.921096         91.0328                0               0
                        0.334693        -176.123                0               0         0.170811         11.2567                0               0
                        0.921084         91.0326                0               0          0.10113         38.5507                0               0
75.09                   0.169098         10.8888                0               0         0.337612        -176.797                0               0
                        0.101615         37.6261                0               0          0.92027         90.3854                0               0
                        0.337612        -176.797                0               0         0.169049         10.9055                0               0
                        0.920256         90.3851                0               0          0.10161         37.6363                0               0
75.135                  0.167204         10.4737                0               0         0.340253        -177.536                0               0
                        0.102048         36.5774                0               0         0.919597         89.6712                0               0
                        0.340253        -177.536                0               0         0.167156         10.4907                0               0
                        0.919583         89.6709                0               0         0.102042         36.5877                0               0
75.18                   0.165177         9.99793                0               0         0.342622        -178.341                0               0
                        0.102435         35.3967                0               0         0.919061         88.8897                0               0
                        0.342622        -178.341                0               0         0.165128         10.0153                0               0
                        0.919047         88.8895                0               0         0.102429          35.407                0               0
75.225                  0.163013          9.4645                0               0         0.344726        -179.214                0               0
                        0.102779         34.0867                0               0          0.91865         88.0408                0               0
                        0.344726        -179.214                0               0         0.162965         9.48219                0               0
                        0.918638         88.0406                0               0         0.102773          34.097                0               0
75.27                   0.160709         8.87634                0               0         0.346573         179.846                0               0
                        0.103081         32.6503                0               0         0.918355         87.1248                0               0
                        0.346574         179.846                0               0         0.160661         8.89443                0               0
                        0.918344         87.1247                0               0         0.103076         32.6606                0               0
75.315                   0.15826         8.23651                0               0         0.348172         178.838                0               0
                        0.103342         31.0908                0               0         0.918169         86.1426                0               0
                        0.348173         178.838                0               0         0.158212         8.25504                0               0
                         0.91816         86.1425                0               0         0.103336         31.1012                0               0
75.36                   0.155662          7.5482                0               0         0.349531         177.762                0               0
                         0.10356         29.4116                0               0          0.91809         85.0951                0               0
                        0.349531         177.762                0               0         0.155614         7.56721                0               0
                        0.918082         85.0951                0               0         0.103555         29.4221                0               0
75.405                  0.152908          6.8148                0               0         0.350658          176.62                0               0
                        0.103736         27.6165                0               0         0.918113          83.984                0               0
                        0.350658          176.62                0               0          0.15286         6.83432                0               0
                        0.918106          83.984                0               0          0.10373          27.627                0               0
75.45                   0.149993         6.03992                0               0         0.351561         175.413                0               0
                        0.103867         25.7093                0               0         0.918237          82.811                0               0
                        0.351561         175.413                0               0         0.149946         6.06002                0               0
                        0.918231         82.8111                0               0         0.103861         25.7199                0               0
75.495                  0.146913         5.22752                0               0         0.352247         174.143                0               0
                        0.103951         23.6941                0               0         0.918461         81.5783                0               0
                        0.352247         174.142                0               0         0.146865         5.24825                0               0
                        0.918455         81.5784                0               0         0.103945         23.7048                0               0
75.54                   0.143661         4.38197                0               0         0.352724          172.81                0               0
                        0.103985         21.5752                0               0         0.918785         80.2882                0               0
                        0.352724          172.81                0               0         0.143614         4.40339                0               0
                        0.918779         80.2883                0               0         0.103979         21.5859                0               0
75.585                  0.140234         3.50809                0               0         0.352999         171.418                0               0
                        0.103966         19.3568                0               0         0.919206         78.9434                0               0
                        0.352999         171.418                0               0         0.140187         3.53028                0               0
                          0.9192         78.9435                0               0          0.10396         19.3675                0               0
75.63                   0.136627         2.61133                0               0         0.353078          169.97                0               0
                        0.103893         17.0435                0               0         0.919723         77.5466                0               0
                        0.353079          169.97                0               0         0.136581         2.63436                0               0
                        0.919717         77.5467                0               0         0.103886         17.0543                0               0
75.675                  0.132838         1.69783                0               0         0.352968         168.467                0               0
                         0.10376           14.64                0               0         0.920333         76.1008                0               0
                        0.352969         168.467                0               0         0.132792         1.72179                0               0
                        0.920327         76.1009                0               0         0.103753         14.6509                0               0
75.72                   0.128864        0.774602                0               0         0.352676         166.913                0               0
                        0.103566          12.151                0               0         0.921032          74.609                0               0
                        0.352676         166.913                0               0         0.128818        0.799601                0               0
                        0.921026         74.6091                0               0         0.103558         12.1619                0               0
75.765                  0.124705       -0.150328                0               0         0.352208          165.31                0               0
                        0.103307         9.58143                0               0         0.921816         73.0745                0               0
                        0.352208          165.31                0               0          0.12466       -0.124177                0               0
                         0.92181         73.0745                0               0         0.103299          9.5924                0               0
75.81                   0.120362         -1.0677                0               0          0.35157         163.662                0               0
                        0.102981         6.93618                0               0         0.922678         71.5003                0               0
                         0.35157         163.662                0               0         0.120318        -1.04026                0               0
                        0.922672         71.5004                0               0         0.102972         6.94718                0               0
75.855                  0.115838        -1.96676                0               0          0.35077         161.973                0               0
                        0.102586         4.22027                0               0         0.923611         69.8899                0               0
                        0.350771         161.972                0               0         0.115794        -1.93788                0               0
                        0.923605         69.8899                0               0         0.102577         4.23127                0               0
75.9                    0.111137        -2.83495                0               0         0.349816         160.244                0               0
                        0.102121         1.43869                0               0         0.924607         68.2463                0               0
                        0.349816         160.244                0               0         0.111095        -2.80444                0               0
                        0.924601         68.2463                0               0         0.102111         1.44968                0               0
75.945                  0.106267        -3.65745                0               0         0.348714          158.48                0               0
                        0.101584        -1.40357                0               0         0.925658         66.5729                0               0
                        0.348715          158.48                0               0         0.106226        -3.62511                0               0
                        0.925653         66.5729                0               0         0.101574        -1.39261                0               0
75.99                   0.101237        -4.41666                0               0         0.347475         156.685                0               0
                        0.100976        -4.30154                0               0         0.926755         64.8727                0               0
                        0.347475         156.684                0               0         0.101196        -4.38224                0               0
                         0.92675         64.8728                0               0         0.100965        -4.29065                0               0
76.035                 0.0960577        -5.09144                0               0         0.346107          154.86                0               0
                        0.100297        -7.25038                0               0         0.927889         63.1491                0               0
                        0.346107          154.86                0               0        0.0960189        -5.05464                0               0
                        0.927885         63.1492                0               0         0.100286        -7.23957                0               0
76.08                   0.090745        -5.65607                0               0          0.34462          153.01                0               0
                       0.0995488        -10.2453                0               0         0.929051         61.4051                0               0
                         0.34462          153.01                0               0        0.0907078        -5.61654                0               0
                        0.929047         61.4052                0               0        0.0995375        -10.2346                0               0
76.125                 0.0853163        -6.07888                0               0         0.343024         151.139                0               0
                       0.0987338        -13.2818                0               0         0.930233         59.6437                0               0
                        0.343024         151.139                0               0         0.085281         -6.0362                0               0
                         0.93023         59.6438                0               0        0.0987221        -13.2712                0               0
76.17                  0.0797929        -6.32028                0               0         0.341331         149.249                0               0
                       0.0978547        -16.3554                0               0         0.931427          57.868                0               0
                        0.341331         149.249                0               0        0.0797598        -6.27395                0               0
                        0.931425         57.8681                0               0        0.0978426         -16.345                0               0
76.215                 0.0742007        -6.32998                0               0         0.339552         147.344                0               0
                        0.096915        -19.4618                0               0         0.932628          56.081                0               0
                        0.339552         147.344                0               0        0.0741701        -6.27937                0               0
                        0.932626          56.081                0               0        0.0969025        -19.4516                0               0
76.26                  0.0685707        -6.04304                0               0         0.337699         145.427                0               0
                       0.0959188         -22.597                0               0         0.933828         54.2855                0               0
                        0.337699         145.427                0               0         0.068543        -5.98741                0               0
                        0.933827         54.2856                0               0         0.095906         -22.587                0               0
76.305                 0.0629411        -5.37428                0               0         0.335784         143.502                0               0
                       0.0948706        -25.7571                0               0         0.935024         52.4847                0               0
                        0.335784         143.502                0               0        0.0629169        -5.31273                0               0
                        0.935022         52.4848                0               0        0.0948572        -25.7473                0               0
76.35                    0.05736        -4.21035                0               0         0.333817         141.572                0               0
                       0.0937747        -28.9383                0               0         0.936208         50.6815                0               0
                        0.333817         141.572                0               0          0.05734        -4.14182                0               0
                        0.936207         50.6816                0               0        0.0937609        -28.9288                0               0
76.395                 0.0518896        -2.39907                0               0         0.331808         139.642                0               0
                       0.0926356        -32.1369                0               0         0.937375         48.8789                0               0
                        0.331808         139.642                0               0        0.0518746        -2.32233                0               0
                        0.937375          48.879                0               0        0.0926214        -32.1277                0               0
76.44                  0.0466133        0.263665                0               0         0.329767         137.715                0               0
                       0.0914572        -35.3491                0               0         0.938515           47.08                0               0
                        0.329767         137.714                0               0        0.0466044        0.349862                0               0
                        0.938514         47.0801                0               0        0.0914427        -35.3401                0               0
76.485                 0.0416458         4.04538                0               0         0.327699         135.795                0               0
                       0.0902428        -38.5709                0               0         0.939612         45.2879                0               0
                        0.327699         135.794                0               0        0.0416444         4.14199                0               0
                        0.939612         45.2879                0               0        0.0902279        -38.5623                0               0
76.53                   0.037148         9.27303                0               0         0.325606         133.886                0               0
                        0.088994         -41.798                0               0         0.940642         43.5054                0               0
                        0.325606         133.886                0               0        0.0371558         9.37994                0               0
                        0.940642         43.5054                0               0        0.0889788        -41.7897                0               0
76.575                 0.0333414         16.2774                0               0         0.323487         131.995                0               0
                        0.087711        -45.0256                0               0         0.941568         41.7352                0               0
                        0.323487         131.995                0               0        0.0333602         16.3919                0               0
                        0.941569         41.7353                0               0        0.0876956        -45.0176                0               0
76.62                  0.0305099         25.2233                0               0         0.321334         130.125                0               0
                       0.0863914         -48.248                0               0         0.942338         39.9795                0               0
                        0.321334         130.125                0               0        0.0305411         25.3382                0               0
                         0.94234         39.9796                0               0        0.0863759        -48.2404                0               0
76.665                  0.028957         35.8075                0               0         0.319133         128.283                0               0
                         0.08503         -51.459                0               0         0.942879         38.2397                0               0
                        0.319133         128.283                0               0        0.0290006         35.9108                0               0
                        0.942882         38.2398                0               0        0.0850147        -51.4518                0               0
76.71                  0.0288974         47.0497                0               0         0.316864         126.474                0               0
                       0.0836188        -54.6512                0               0         0.943097          36.516                0               0
                        0.316864         126.474                0               0        0.0289515         47.1293                0               0
                        0.943101         36.5162                0               0        0.0836036        -54.6444                0               0
76.755                 0.0303396          57.598                0               0         0.314499         124.706                0               0
                       0.0821465        -57.8164                0               0         0.942881         34.8076                0               0
                        0.314499         124.706                0               0        0.0304006         57.6487                0               0
                        0.942886         34.8078                0               0        0.0821315        -57.8101                0               0
76.8                   0.0330795         66.4266                0               0         0.312008         122.983                0               0
                          0.0806        -60.9458                0               0         0.942103         33.1126                0               0
                        0.312008         122.983                0               0        0.0331438         66.4516                0               0
                        0.942108         33.1128                0               0        0.0805851          -60.94                0               0
76.845                 0.0368112         73.1893                0               0          0.30936         121.313                0               0
                       0.0789658        -64.0299                0               0         0.940633         31.4288                0               0
                        0.309359         121.313                0               0        0.0368761         73.1958                0               0
                        0.940639          31.429                0               0        0.0789508        -64.0246                0               0
76.89                   0.041238         78.0391                0               0         0.306526         119.703                0               0
                       0.0772327        -67.0595                0               0         0.938356         29.7551                0               0
                        0.306526         119.702                0               0         0.041302         78.0338                0               0
                        0.938362         29.7552                0               0        0.0772175        -67.0547                0               0
76.935                 0.0461185         81.3217                0               0         0.303494         118.158                0               0
                       0.0753955        -70.0257                0               0          0.93519         28.0925                0               0
                        0.303494         118.157                0               0        0.0461808         81.3097                0               0
                        0.935195         28.0926                0               0        0.0753799        -70.0214                0               0
76.98                  0.0512666         83.3952                0               0         0.300268         116.684                0               0
                       0.0734582         -72.921                0               0          0.93112         26.4454                0               0
                        0.300268         116.684                0               0        0.0513269         83.3795                0               0
                        0.931124         26.4454                0               0        0.0734421        -72.9172                0               0
77.025                 0.0565386         84.5661                0               0         0.296879         115.286                0               0
                       0.0714362        -75.7401                0               0         0.926217         24.8204                0               0
                         0.29688         115.286                0               0        0.0565968         84.5488                0               0
                         0.92622         24.8203                0               0        0.0714198        -75.7368                0               0
77.07                  0.0618228           85.08                0               0         0.293385         113.965                0               0
                       0.0693561        -78.4811                0               0         0.920642         23.2246                0               0
                        0.293385         113.965                0               0         0.061879         85.0621                0               0
                        0.920646         23.2244                0               0        0.0693399        -78.4783                0               0
77.115                 0.0670339         85.1281                0               0         0.289864         112.718                0               0
                       0.0672532        -81.1468                0               0         0.914622          21.663                0               0
                        0.289864         112.718                0               0        0.0670881         85.1104                0               0
                        0.914627         21.6629                0               0        0.0672375        -81.1447                0               0
77.16                  0.0721112         84.8565                0               0         0.286403         111.537                0               0
                        0.065166        -83.7451                0               0         0.908396         20.1368                0               0
                        0.286403         111.537                0               0        0.0721636         84.8391                0               0
                        0.908404         20.1366                0               0        0.0651515        -83.7439                0               0
77.205                 0.0770165         84.3733                0               0         0.283086          110.41                0               0