! TOUCHSTONE file generated by CST MICROWAVE STUDIO
! Date and time: Mon Jun 21 17:07:23 2021
! Project name: HIPS_d_sweep.cst
! Parameters = {a=0.735; b=0.393; d=23.7889; fmax=120; fmin=75; phi=0; theta=0}
! Header version: 2018
! Port assignment regex: !\s*Touchstone port\s*([0-9]+)\s*=\s*(CST MWS port|CST DS port)\s*([0-9]+|Zmin|Zmax)\s*\(\"(.*)\"\)(\s*mode\s*([0-9]+))?.*
! Touchstone port assignment:
! Touchstone port 1 = CST MWS port Zmin ("") mode 1
! Touchstone port 2 = CST MWS port Zmin ("") mode 2
! Touchstone port 3 = CST MWS port Zmax ("") mode 1
! Touchstone port 4 = CST MWS port Zmax ("") mode 2
! S-Parameters are not renormalized. Unphysical impedance of 0 will be written to the file.
# GHz S MA R 0
75                      0.061395        -32.1342                0               0        0.0241441        -29.1133                0               0
                       0.0241353        -29.2337                0               0         0.997531        -122.568                0               0
                       0.0241433        -29.1123                0               0          0.06138        -31.8847                0               0
                        0.997529        -122.564                0               0        0.0241392        -28.8499                0               0
75.045                 0.0586253        -32.8955                0               0        0.0269475        -30.1882                0               0
                        0.024636        -30.2129                0               0         0.998345        -123.221                0               0
                       0.0269488        -30.1837                0               0        0.0586095        -32.6324                0               0
                        0.998343        -123.217                0               0        0.0246384        -29.8349                0               0
75.09                  0.0555055        -33.6878                0               0         0.029778        -31.3332                0               0
                       0.0250557        -31.1764                0               0         0.998787        -123.991                0               0
                        0.029781        -31.3268                0               0        0.0554893        -33.4084                0               0
                        0.998785        -123.987                0               0        0.0250568        -30.8032                0               0
75.135                  0.052028        -34.5156                0               0        0.0325804        -32.5506                0               0
                       0.0253788        -32.1576                0               0         0.998971        -124.872                0               0
                       0.0325842        -32.5433                0               0        0.0520117        -34.2158                0               0
                        0.998969        -124.869                0               0        0.0253788        -31.7883                0               0
75.18                  0.0481866        -35.3809                0               0        0.0352906        -33.8433                0               0
                       0.0255918        -33.1907                0               0          0.99899        -125.861                0               0
                       0.0352947        -33.8361                0               0        0.0481705        -35.0555                0               0
                        0.998989        -125.858                0               0        0.0255909        -32.8239                0               0
75.225                 0.0439763         -36.283                0               0         0.037839        -35.2144                0               0
                       0.0256837        -34.3079                0               0         0.998916        -126.952                0               0
                       0.0378428        -35.2079                0               0        0.0439608        -35.9247                0               0
                        0.998914        -126.948                0               0         0.025682        -33.9422                0               0
75.27                  0.0393938        -37.2164                0               0        0.0401537        -36.6662                0               0
                        0.025646        -35.5391                0               0         0.998802         -128.14                0               0
                       0.0401567        -36.6608                0               0        0.0393793        -36.8144                0               0
                          0.9988        -128.136                0               0        0.0256435         -35.173                0               0
75.315                 0.0344376        -38.1669                0               0        0.0421648        -38.1996                0               0
                       0.0254722        -36.9105                0               0         0.998686         -129.42                0               0
                       0.0421669        -38.1957                0               0        0.0344244        -37.7047                0               0
                        0.998684        -129.416                0               0        0.0254688        -36.5422                0               0
75.36                  0.0291078        -39.1034                0               0        0.0438098        -39.8143                0               0
                       0.0251576        -38.4444                0               0         0.998592        -130.787                0               0
                       0.0438108        -39.8117                0               0        0.0290966        -38.5536                0               0
                         0.99859        -130.783                0               0        0.0251532        -38.0718                0               0
75.405                 0.0234072        -39.9548                0               0        0.0450374        -41.5078                0               0
                        0.024699        -40.1587                0               0         0.998532        -132.236                0               0
                       0.0450374        -41.5065                0               0        0.0233991        -39.2673                0               0
                         0.99853        -132.233                0               0        0.0246934        -39.7795                0               0
75.45                  0.0173419        -40.5345                0               0        0.0458117        -43.2758                0               0
                       0.0240945        -42.0672                0               0          0.99851        -133.764                0               0
                       0.0458107        -43.2756                0               0         0.017339        -39.6012                0               0
                        0.998508         -133.76                0               0        0.0240875        -41.6786                0               0
75.495                 0.0109248        -40.1802                0               0         0.046114        -45.1126                0               0
                       0.0233433        -44.1799                0               0         0.998521        -135.365                0               0
                       0.0461124        -45.1132                0               0        0.0109329        -38.6914                0               0
                         0.99852        -135.361                0               0        0.0233348        -43.7789                0               0
75.54                 0.00420803        -33.8094                0               0        0.0459435        -47.0111                0               0
                       0.0224463        -46.5035                0               0         0.998557        -137.035                0               0
                       0.0459414        -47.0122                0               0       0.00426184        -30.0113                0               0
                        0.998555        -137.031                0               0        0.0224359        -46.0863                0               0
75.585                 0.0031553         114.536                0               0        0.0453158        -48.9635                0               0
                       0.0214056        -49.0424                0               0         0.998601        -138.772                0               0
                       0.0453136        -48.9648                0               0       0.00326906         109.824                0               0
                          0.9986        -138.768                0               0        0.0213931        -48.6046                0               0
75.63                  0.0104904         124.931                0               0        0.0442605        -50.9616                0               0
                       0.0202254        -51.7996                0               0         0.998638         -140.57                0               0
                       0.0442584        -50.9629                0               0         0.010538         123.376                0               0
                        0.998637        -140.566                0               0        0.0202104        -51.3359                0               0
75.675                  0.018203         125.309                0               0        0.0428174        -52.9973                0               0
                       0.0189119        -54.7789                0               0         0.998649        -142.427                0               0
                       0.0428155        -52.9983                0               0        0.0182376           124.4                0               0
                        0.998648        -142.423                0               0        0.0188941        -54.2826                0               0
75.72                  0.0261952         124.342                0               0        0.0410327        -55.0628                0               0
                       0.0174738        -57.9876                0               0         0.998616        -144.339                0               0
                       0.0410313        -55.0633                0               0         0.026224         123.705                0               0
                        0.998615        -144.335                0               0        0.0174528        -57.4502                0               0
75.765                 0.0344293         122.894                0               0        0.0389556        -57.1504                0               0
                       0.0159221        -61.4411                0               0         0.998521        -146.303                0               0
                       0.0389545        -57.1503                0               0        0.0344547         122.406                0               0
                         0.99852        -146.299                0               0        0.0158976        -60.8515                0               0
75.81                  0.0428691         121.197                0               0        0.0366346        -59.2527                0               0
                       0.0142705        -65.1703                0               0         0.998347        -148.315                0               0
                       0.0366339        -59.2518                0               0        0.0428921         120.802                0               0
                        0.998347        -148.311                0               0        0.0142419        -64.5135                0               0
75.855                 0.0514761         119.341                0               0        0.0341155        -61.3618                0               0
                       0.0125346        -69.2358                0               0         0.998084        -150.372                0               0
                       0.0341151        -61.3602                0               0        0.0514973          119.01                0               0
                        0.998083        -150.368                0               0        0.0125012        -68.4908                0               0
75.9                   0.0602095         117.372                0               0        0.0314398        -63.4686                0               0
                       0.0107322        -73.7554                0               0          0.99772         -152.47                0               0
                       0.0314396        -63.4663                0               0        0.0602292         117.088                0               0
                         0.99772        -152.467                0               0        0.0106931        -72.8912                0               0
75.945                 0.0690268         115.318                0               0        0.0286435        -65.5615                0               0
                      0.00888371         -78.965                0               0         0.997253        -154.607                0               0
                       0.0286435        -65.5586                0               0        0.0690453          115.07                0               0
                        0.997253        -154.603                0               0       0.00883723        -77.9332                0               0
75.99                   0.077885         113.199                0               0         0.025757        -67.6242                0               0
                      0.00701351        -85.3735                0               0         0.996681        -156.778                0               0
                        0.025757        -67.6208                0               0        0.0779024         112.978                0               0
                        0.996681        -156.774                0               0       0.00695673        -84.0947                0               0
76.035                  0.086742         111.029                0               0        0.0228052        -69.6317                0               0
                      0.00515797        -94.2332                0               0         0.996008        -158.979                0               0
                        0.022805        -69.6279                0               0        0.0867584         110.831                0               0
                        0.996009        -158.975                0               0       0.00508505        -92.5714                0               0
76.08                  0.0955574         108.822                0               0        0.0198078        -71.5433                0               0
                      0.00339853        -109.313                0               0         0.995243        -161.205                0               0
                       0.0198075        -71.5391                0               0         0.095573         108.642                0               0
                        0.995243        -161.201                0               0       0.00329611        -107.102                0               0
76.125                  0.104294         106.587                0               0        0.0167804        -73.2875                0               0
                      0.00204945        -143.853                0               0         0.994395        -163.453                0               0
                       0.0167799         -73.283                0               0         0.104309         106.422                0               0
                        0.994396        -163.449                0               0       0.00189462         -142.28                0               0
76.17                   0.112919         104.333                0               0        0.0137351         -74.728                0               0
                      0.00213507         157.285                0               0         0.993478        -165.716                0               0
                       0.0137344        -74.7233                0               0         0.112934          104.18                0               0
                        0.993478        -165.712                0               0       0.00200881         154.431                0               0
76.215                  0.121405         102.067                0               0        0.0106826        -75.5714                0               0
                      0.00353544         125.787                0               0         0.992501        -167.989                0               0
                       0.0106817        -75.5663                0               0         0.121419         101.926                0               0
                        0.992501        -167.985                0               0       0.00347488         123.331                0               0
76.26                    0.12973         99.7968                0               0       0.00763643         -75.057                0               0
                      0.00527368         111.719                0               0         0.991472        -170.266                0               0
                      0.00763541        -75.0509                0               0         0.129743         99.6652                0               0
                        0.991473        -170.262                0               0       0.00524361         109.998                0               0
76.305                  0.137877         97.5257                0               0       0.00463313        -70.4653                0               0
                      0.00708783         103.267                0               0         0.990395         -172.54                0               0
                      0.00463207        -70.4553                0               0         0.137889         97.4024                0               0
                        0.990396        -172.536                0               0       0.00707371         101.981                0               0
76.35                   0.145833         95.2573                0               0       0.00193633        -43.3087                0               0
                      0.00891625         97.0799                0               0         0.989265        -174.805                0               0
                      0.00193572        -43.2731                0               0         0.145845         95.1413                0               0
                        0.989266        -174.801                0               0       0.00891191          96.063                0               0
76.395                  0.153594          92.994                0               0       0.00231653         47.9427                0               0
                       0.0107388         92.0087                0               0         0.988071        -177.053                0               0
                      0.00231779         47.9542                0               0         0.153605         92.8845                0               0
                        0.988072        -177.049                0               0        0.0107411         91.1712                0               0
76.44                   0.161152         90.7377                0               0       0.00515613         67.4738                0               0
                       0.0125469         87.5737                0               0         0.986796        -179.279                0               0
                      0.00515748         67.4707                0               0         0.161163         90.6339                0               0
                        0.986797        -179.275                0               0        0.0125539         86.8633                0               0
76.485                  0.168506         88.4907                0               0       0.00823099         71.0838                0               0
                       0.0143351         83.5494                0               0         0.985424         178.525                0               0
                      0.00823236         71.0777                0               0         0.168515          88.392                0               0
                        0.985425          178.53                0               0        0.0143457          82.933                0               0
76.53                   0.175648         86.2567                0               0        0.0113645         71.5104                0               0
                       0.0160965         79.8277                0               0         0.983948         176.365                0               0
                        0.011366         71.5023                0               0         0.175656         86.1626                0               0
                         0.98395         176.369                0               0        0.0161097         79.2831                0               0
76.575                  0.182561         84.0425                0               0        0.0145102          70.976                0               0
                       0.0178174         76.3617                0               0         0.982393         174.245                0               0
                       0.0145123         70.9665                0               0         0.182568         83.9525                0               0
                        0.982395         174.249                0               0        0.0178326          75.873                0               0
76.62                   0.189208         81.8581                0               0        0.0175989         70.2194                0               0
                       0.0194714         73.1328                0               0         0.980844         172.168                0               0
                       0.0176021         70.2099                0               0         0.189213         81.7718                0               0
                        0.980847         172.172                0               0        0.0194883         72.6884                0               0
76.665                  0.195513         79.7158                0               0        0.0204791         69.5284                0               0
                       0.0210137         70.1172                0               0          0.97951         170.135                0               0
                       0.0204839         69.5215                0               0         0.195517         79.6328                0               0
                        0.979514         170.139                0               0        0.0210323         69.7085                0               0
76.71                   0.201348         77.6228                0               0        0.0228956          68.783                0               0
                        0.022386         67.2501                0               0         0.978779         168.127                0               0
                       0.0229011         68.7818                0               0         0.201352         77.5429                0               0
                        0.978784         168.132                0               0        0.0224063         66.8707                0               0
76.755                  0.206547         75.5694                0               0        0.0246415         67.3406                0               0
                       0.0235382         64.4119                0               0         0.979031          166.09                0               0
                       0.0246456         67.3451                0               0         0.206551         75.4925                0               0
                        0.979036         166.094                0               0        0.0235601         64.0572                0               0
76.8                     0.21098         73.5235                0               0        0.0258764         64.4578                0               0
                       0.0244573         61.4703                0               0         0.979295          163.91                0               0
                       0.0258777          64.463                0               0         0.210984         73.4495                0               0
                        0.979299         163.914                0               0         0.024481         61.1363                0               0
76.845                  0.214635          71.446                0               0        0.0270657         60.1746                0               0
                       0.0251725         58.3519                0               0         0.975992         161.595                0               0
                       0.0270653         60.1764                0               0          0.21464         71.3747                0               0
                        0.975996         161.599                0               0        0.0251979         58.0352                0               0
76.89                   0.217626          69.319                0               0        0.0285068         55.2442                0               0
                       0.0257288          55.072                0               0         0.968318         159.394                0               0
                       0.0285064         55.2434                0               0         0.217631         69.2502                0               0
                        0.968324         159.398                0               0        0.0257565         54.7701                0               0
76.935                  0.220093         67.1555                0               0        0.0301968         50.3151                0               0
                       0.0261615         51.7032                0               0         0.959576         157.395                0               0
                        0.030197         50.3136                0               0         0.220099          67.089                0               0
                        0.959583           157.4                0               0        0.0261917         51.4143                0               0
76.98                   0.222136         64.9851                0               0        0.0320167         45.6457                0               0
                       0.0264886         48.3298                0               0         0.951403         155.517                0               0
                       0.0320172         45.6448                0               0         0.222143         64.9207                0               0
                         0.95141         155.521                0               0        0.0265215         48.0525                0               0
77.025                  0.223805         62.8378                0               0        0.0338582         41.2642                0               0
                       0.0267171         45.0218                0               0         0.943823         153.695                0               0
                       0.0338588         41.2644                0               0         0.223814         62.7754                0               0
                        0.943828           153.7                0               0        0.0267526          44.755                0               0
77.07                   0.225128         60.7361                0               0        0.0356508         37.1262                0               0
                       0.0268501         41.8296                0               0         0.936584         151.905                0               0
                       0.0356512         37.1275                0               0         0.225138         60.6755                0               0
                        0.936589         151.909                0               0        0.0268882         41.5722                0               0
77.115                  0.226123         58.6947                0               0        0.0373534         33.1813                0               0
                       0.0268918         38.7863                0               0         0.929515         150.137                0               0
                       0.0373535         33.1834                0               0         0.226135         58.6357                0               0
                        0.929519         150.141                0               0        0.0269321         38.5374                0               0
77.16                   0.226814         56.7215                0               0        0.0389435         29.3903                0               0
                       0.0268484         35.9131                0               0         0.922527         148.389                0               0
                       0.0389433          29.393                0               0         0.226828         56.6642                0               0
                        0.922531         148.393                0               0        0.0268907         35.6715                0               0
77.205                   0.22723         54.8204                0               0          0.04041         25.7267                0               0