! TOUCHSTONE file generated by CST MICROWAVE STUDIO
! Date and time: Mon Jun 21 17:07:18 2021
! Project name: HIPS_d_sweep.cst
! Parameters = {a=0.735; b=0.393; d=23.1859; fmax=120; fmin=75; phi=0; theta=0}
! Header version: 2018
! Port assignment regex: !\s*Touchstone port\s*([0-9]+)\s*=\s*(CST MWS port|CST DS port)\s*([0-9]+|Zmin|Zmax)\s*\(\"(.*)\"\)(\s*mode\s*([0-9]+))?.*
! Touchstone port assignment:
! Touchstone port 1 = CST MWS port Zmin ("") mode 1
! Touchstone port 2 = CST MWS port Zmin ("") mode 2
! Touchstone port 3 = CST MWS port Zmax ("") mode 1
! Touchstone port 4 = CST MWS port Zmax ("") mode 2
! S-Parameters are not renormalized. Unphysical impedance of 0 will be written to the file.
# GHz S MA R 0
75                      0.247807         37.8883                0               0        0.0563313         46.3123                0               0
                       0.0365763         60.0677                0               0         0.966482        -52.5569                0               0
                       0.0563315         46.3116                0               0         0.247766         37.9537                0               0
                        0.966478        -52.5578                0               0        0.0367303         60.7009                0               0
75.045                  0.247655         36.8987                0               0        0.0591801          45.378                0               0
                       0.0371155         60.3352                0               0         0.967374        -53.2045                0               0
                       0.0591783         45.3847                0               0         0.247619         37.0004                0               0
                        0.967371        -53.2055                0               0        0.0372794         60.9609                0               0
75.09                   0.247284         35.8744                0               0        0.0620697         44.3481                0               0
                       0.0376789         60.4401                0               0         0.967798        -53.9429                0               0
                        0.062067         44.3593                0               0         0.247269         36.0198                0               0
                        0.967796        -53.9439                0               0        0.0378506         61.0569                0               0
75.135                  0.246622         34.8092                0               0        0.0649408         43.2292                0               0
                       0.0382612         60.3629                0               0         0.967882        -54.7723                0               0
                       0.0649381          43.242                0               0         0.246675         35.0087                0               0
                         0.96788        -54.7732                0               0        0.0384388         60.9698                0               0
75.18                   0.245527         33.6995                0               0        0.0677255         42.0305                0               0
                        0.038856         60.0866                0               0         0.967743        -55.6915                0               0
                       0.0677233         42.0427                0               0         0.245766         33.9658                0               0
                        0.967741        -55.6924                0               0        0.0390377         60.6833                0               0
75.225                  0.243676         32.5742                0               0        0.0703509         40.7634                0               0
                        0.039456         59.5977                0               0         0.967483        -56.6988                0               0
                       0.0703495         40.7733                0               0         0.244407         32.9012                0               0
                        0.967481        -56.6997                0               0        0.0396402         60.1845                0               0
75.27                   0.240682         31.6657                0               0        0.0727443           39.44                0               0
                       0.0400532         58.8869                0               0         0.967188        -57.7915                0               0
                       0.0727437         39.4466                0               0         0.242373         31.8848                0               0
                        0.967186        -57.7924                0               0        0.0402384         59.4647                0               0
75.315                  0.239133         31.3526                0               0        0.0748388         38.0721                0               0
                       0.0406389         57.9494                0               0         0.966931        -58.9665                0               0
                       0.0748388          38.075                0               0         0.240091         31.1856                0               0
                        0.966928        -58.9674                0               0        0.0408241         58.5195                0               0
75.36                    0.24043         30.4742                0               0        0.0765785         36.6696                0               0
                       0.0412044         56.7851                0               0         0.966765        -60.2203                0               0
                        0.076579         36.6692                0               0         0.240385         30.5434                0               0
                        0.966763        -60.2212                0               0        0.0413886         57.3489                0               0
75.405                  0.240277         29.0908                0               0        0.0779238           35.24                0               0
                       0.0417406         55.3982                0               0         0.966733        -61.5494                0               0
                       0.0779243          35.237                0               0         0.240625         29.2071                0               0
                        0.966731        -61.5503                0               0        0.0419234         55.9576                0               0
75.45                   0.238981         27.6516                0               0         0.078853         33.7873                0               0
                       0.0422391         53.7974                0               0         0.966861          -62.95                0               0
                       0.0788535         33.7827                0               0         0.239326         27.7347                0               0
                        0.966858        -62.9509                0               0        0.0424202         54.3541                0               0
75.495                  0.237122         26.1986                0               0        0.0793638         32.3123                0               0
                        0.042692         51.9948                0               0         0.967163        -64.4186                0               0
                       0.0793642         32.3074                0               0          0.23735         26.2682                0               0
                         0.96716        -64.4195                0               0        0.0428712         52.5505                0               0
75.54                   0.234906         24.7154                0               0        0.0794712          30.813                0               0
                       0.0430922         50.0056                0               0         0.967643        -65.9515                0               0
                       0.0794716         30.8088                0               0         0.235022         24.7835                0               0
                        0.967641        -65.9524                0               0        0.0432697         50.5618                0               0
75.585                  0.232409         23.1876                0               0        0.0792045         29.2849                0               0
                        0.043434          47.847                0               0         0.968296        -67.5453                0               0
                       0.0792048         29.2824                0               0         0.232435         23.2585                0               0
                        0.968294        -67.5463                0               0        0.0436095         48.4051                0               0
75.63                   0.229663          21.606                0               0        0.0786028         27.7221                0               0
                       0.0437124         45.5375                0               0         0.969107         -69.197                0               0
                       0.0786031          27.722                0               0         0.229623         21.6807                0               0
                        0.969105        -69.1979                0               0         0.043886         46.0986                0               0
75.675                  0.226687         19.9653                0               0        0.0777107         26.1181                0               0
                       0.0439239          43.096                0               0         0.970055        -70.9036                0               0
                       0.0777111         26.1208                0               0         0.226598         20.0433                0               0
                        0.970054        -70.9045                0               0        0.0440955         43.6611                0               0
75.72                    0.22349         18.2624                0               0        0.0765741         24.4665                0               0
                       0.0440661         40.5411                0               0         0.971116        -72.6623                0               0
                       0.0765748         24.4721                0               0         0.223369         18.3432                0               0
                        0.971115        -72.6632                0               0        0.0442354         41.1109                0               0
75.765                  0.220076         16.4965                0               0        0.0752371         22.7615                0               0
                       0.0441375         37.8904                0               0         0.972259        -74.4706                0               0
                       0.0752382         22.7698                0               0         0.219935         16.5795                0               0
                        0.972259        -74.4715                0               0        0.0443041         38.4656                0               0
75.81                   0.216446          14.668                0               0        0.0737392         20.9982                0               0
                       0.0441374         35.1598                0               0         0.973454        -76.3265                0               0
                       0.0737406         21.0089                0               0         0.216296         14.7527                0               0
                        0.973454        -76.3274                0               0        0.0443007         35.7412                0               0
75.855                  0.212597         12.7786                0               0         0.072114         19.1731                0               0
                       0.0440655         32.3638                0               0         0.974668        -78.2278                0               0
                       0.0721156         19.1856                0               0         0.212448         12.8648                0               0
                        0.974669        -78.2287                0               0         0.044225          32.952                0               0
75.9                    0.208523          10.831                0               0        0.0703882         17.2836                0               0
                        0.043922         29.5146                0               0         0.975872        -80.1727                0               0
                       0.0703902         17.2974                0               0          0.20838         10.9185                0               0
                        0.975873        -80.1736                0               0         0.044077         30.1103                0               0
75.945                  0.204215         8.82845                0               0        0.0685823         15.3288                0               0
                       0.0437068         26.6225                0               0          0.97704        -82.1595                0               0
                       0.0685844         15.3431                0               0         0.204083         8.91745                0               0
                        0.977042        -82.1604                0               0        0.0438566         27.2264                0               0
75.99                    0.19966         6.77501                0               0        0.0667097         13.3088                0               0
                       0.0434199         23.6958                0               0         0.978155        -84.1865                0               0
                       0.0667119         13.3229                0               0         0.199544         6.86558                0               0
                        0.978157        -84.1874                0               0        0.0435637         24.3088                0               0
76.035                  0.194848          4.6752                0               0        0.0647785         11.2252                0               0
                       0.0430606         20.7412                0               0         0.979205        -86.2519                0               0
                       0.0647807         11.2385                0               0         0.194748         4.76754                0               0
                        0.979208        -86.2528                0               0        0.0431979         21.3643                0               0
76.08                   0.189764          2.5341                0               0        0.0627912         9.08102                0               0
                        0.042628         17.7636                0               0         0.980194        -88.3535                0               0
                       0.0627932         9.09306                0               0         0.189682         2.62843                0               0
                        0.980197        -88.3545                0               0        0.0427581          18.398                0               0
76.125                  0.184396        0.357346                0               0        0.0607461         6.88103                0               0
                       0.0421202         14.7672                0               0         0.981137        -90.4885                0               0
                        0.060748         6.89129                0               0         0.184332        0.453892                0               0
                        0.981139        -90.4895                0               0        0.0422429          15.414                0               0
76.17                   0.178733        -1.84881                0               0        0.0586381         4.63161                0               0
                       0.0415353         11.7549                0               0         0.982061        -92.6529                0               0
                       0.0586396         4.63977                0               0         0.178686        -1.74982                0               0
                        0.982064         -92.654                0               0        0.0416502         12.4156                0               0
76.215                  0.172766        -4.07741                0               0        0.0564589         2.34116                0               0
                       0.0408704         8.72955                0               0         0.983002        -94.8414                0               0
                         0.05646         2.34704                0               0         0.172735        -3.97573                0               0
                        0.983005        -94.8426                0               0        0.0409775         9.40553                0               0
76.26                   0.166492        -6.32074                0               0        0.0541986       0.0200709                0               0
                       0.0401227         5.69363                0               0         0.983998        -97.0469                0               0
                       0.0541993       0.0236604                0               0         0.166473        -6.21609                0               0
                        0.984001        -97.0482                0               0        0.0402219          6.3865                0               0
76.305                  0.159908        -8.57022                0               0        0.0518463        -2.31953                0               0
                       0.0392893         2.65006                0               0         0.985075        -99.2608                0               0
                       0.0518466        -2.31805                0               0           0.1599        -8.46228                0               0
                        0.985078        -99.2621                0               0         0.039381         3.36151                0               0
76.35                    0.15302        -10.8166                0               0        0.0493915        -4.66474                0               0
                       0.0383683       -0.397739                0               0         0.986238        -101.473                0               0
                       0.0493916        -4.66497                0               0         0.153021        -10.7049                0               0
                        0.986242        -101.475                0               0        0.0384527          0.3341                0               0
76.395                   0.14584        -13.0501                0               0        0.0468271        -7.00417                0               0
                       0.0373591        -3.44552                0               0         0.987466        -103.675                0               0
                       0.0468271        -7.00545                0               0         0.145846        -12.9342                0               0
                         0.98747        -103.676                0               0        0.0374366        -2.69134                0               0
76.44                   0.138388        -15.2621                0               0        0.0441542         -9.3322                0               0
                       0.0362639        -6.48786                0               0         0.988714        -105.858                0               0
                       0.0441542        -9.33356                0               0         0.138398        -15.1412                0               0
                        0.988718        -105.859                0               0        0.0363351         -5.7092                0               0
76.485                  0.130699        -17.4472                0               0        0.0413924        -11.6549                0               0
                       0.0350901        -9.51743                0               0         0.989931         -108.02                0               0
                       0.0413925        -11.6552                0               0          0.13071        -17.3204                0               0
                        0.989936        -108.022                0               0        0.0351555        -8.71193                0               0
76.53                   0.122823        -19.6097                0               0         0.038599        -13.9926                0               0
                       0.0338529        -12.5229                0               0         0.991081        -110.167                0               0
                        0.038599         -13.991                0               0         0.122835        -19.4761                0               0
                        0.991085        -110.168                0               0        0.0339129        -11.6879                0               0
76.575                  0.114846         -21.776                0               0         0.035898        -16.3646                0               0
                       0.0325798        -15.4841                0               0         0.992154        -112.315                0               0
                       0.0358979        -16.3617                0               0          0.11486        -21.6349                0               0
                        0.992157        -112.316                0               0        0.0326342        -14.6169                0               0
76.62                    0.10689        -24.0121                0               0        0.0335081         -18.751                0               0
                       0.0313147         -18.367                0               0         0.993208        -114.496                0               0
                       0.0335082        -18.7514                0               0         0.106911        -23.8638                0               0
                        0.993212        -114.498                0               0        0.0313625        -17.4649                0               0
76.665                 0.0990734        -26.4197                0               0        0.0317347        -21.2007                0               0
                       0.0301197         -21.138                0               0         0.994677        -116.758                0               0
                       0.0317353        -21.2158                0               0        0.0991104        -26.2655                0               0
                        0.994684        -116.759                0               0        0.0301588        -20.1983                0               0
76.71                  0.0913282        -29.0226                0               0        0.0306592        -24.6846                0               0
                       0.0290519        -23.8792                0               0         0.998339        -119.086                0               0
                       0.0306498        -24.7235                0               0        0.0913795        -28.8633                0               0
                        0.998353        -119.088                0               0        0.0290806        -22.8952                0               0
76.755                 0.0832701        -31.5473                0               0         0.028569        -30.2217                0               0
                       0.0279776        -26.9639                0               0                1        -121.173                0               0
                       0.0285462        -30.2335                0               0        0.0833196        -31.3771                0               0
                               1        -121.175                0               0        0.0280018        -25.9261                0               0
76.8                    0.074681        -33.5263                0               0        0.0248806        -32.7582                0               0
                       0.0264268        -30.1326                0               0                1         -123.01                0               0
                       0.0248733        -32.7483                0               0        0.0747214        -33.3357                0               0
                               1        -123.011                0               0        0.0264516        -29.0506                0               0
76.845                 0.0658221        -34.7373                0               0        0.0217854        -31.5234                0               0
                       0.0245631        -32.2583                0               0          0.99844        -124.957                0               0
                       0.0217846        -31.5204                0               0        0.0658614        -34.5224                0               0
                        0.998444        -124.959                0               0        0.0245868        -31.1219                0               0
76.89                  0.0570119        -35.1812                0               0        0.0193835        -28.4404                0               0
                       0.0227821        -33.4772                0               0         0.991949        -126.978                0               0
                       0.0193836        -28.4413                0               0        0.0570576        -34.9407                0               0
                        0.991952         -126.98                0               0        0.0228113        -32.2722                0               0
76.935                 0.0484217        -34.7852                0               0        0.0174677        -23.9197                0               0
                       0.0211233        -34.1622                0               0         0.985083        -129.001                0               0
                       0.0174678        -23.9212                0               0        0.0484778        -34.5159                0               0
                        0.985085        -129.003                0               0        0.0211627        -32.8838                0               0
76.98                  0.0401534        -33.2498                0               0        0.0160187        -17.9935                0               0
                       0.0195662        -34.4103                0               0            0.978        -130.999                0               0
                       0.0160188        -17.9946                0               0         0.040223        -32.9454                0               0
                        0.978002        -131.001                0               0        0.0196191        -33.0552                0               0
77.025                 0.0323264        -29.9161                0               0        0.0150888        -10.8897                0               0
                       0.0181108        -34.2096                0               0         0.970763        -132.963                0               0
                       0.0150888        -10.8906                0               0        0.0324136        -29.5689                0               0
                        0.970764        -132.965                0               0        0.0181796        -32.7758                0               0
77.07                  0.0251581        -23.4627                0               0        0.0147192        -3.19699                0               0
                        0.016768         -33.526                0               0         0.963418        -134.894                0               0
                       0.0147191        -3.19804                0               0        0.0252695        -23.0718                0               0
                        0.963419        -134.896                0               0        0.0168554        -32.0144                0               0
77.115                 0.0191195        -11.3495                0               0        0.0148952         4.26431                0               0
                       0.0155518        -32.3331                0               0         0.956003        -136.791                0               0
                        0.014895         4.26314                0               0        0.0192633        -10.9552                0               0
                        0.956003        -136.793                0               0        0.0156603        -30.7491                0               0
77.16                  0.0152257         9.76444                0               0        0.0155407         10.7732                0               0
                       0.0144747        -30.6253                0               0         0.948554        -138.655                0               0
                       0.0155405         10.7721                0               0        0.0154009         9.99264                0               0
                        0.948554        -138.657                0               0        0.0146066        -28.9808                0               0
77.205                 0.0148457         37.1446                0               0        0.0165443         15.9509                0               0