! TOUCHSTONE file generated by CST MICROWAVE STUDIO
! Date and time: Mon Jun 21 17:06:51 2021
! Project name: HIPS_d_sweep.cst
! Parameters = {a=0.735; b=0.393; d=20.2211; fmax=120; fmin=75; phi=0; theta=0}
! Header version: 2018
! Port assignment regex: !\s*Touchstone port\s*([0-9]+)\s*=\s*(CST MWS port|CST DS port)\s*([0-9]+|Zmin|Zmax)\s*\(\"(.*)\"\)(\s*mode\s*([0-9]+))?.*
! Touchstone port assignment:
! Touchstone port 1 = CST MWS port Zmin ("") mode 1
! Touchstone port 2 = CST MWS port Zmin ("") mode 2
! Touchstone port 3 = CST MWS port Zmax ("") mode 1
! Touchstone port 4 = CST MWS port Zmax ("") mode 2
! S-Parameters are not renormalized. Unphysical impedance of 0 will be written to the file.
# GHz S MA R 0
75                      0.221683         26.8862                0               0         0.240121         26.3622                0               0
                       0.0763895         70.9982                0               0         0.941997        -66.7093                0               0
                        0.240121         26.3622                0               0         0.221694          26.871                0               0
                        0.941999         -66.711                0               0        0.0764006         70.9887                0               0
75.045                   0.22042          26.409                0               0         0.243466         25.7198                0               0
                       0.0772187         70.2758                0               0         0.941826        -67.3012                0               0
                        0.243467         25.7201                0               0         0.220432         26.3941                0               0
                        0.941826        -67.3031                0               0          0.07723         70.2662                0               0
75.09                   0.219071         25.8561                0               0         0.246525         25.0232                0               0
                       0.0779861          69.419                0               0          0.94149        -67.9707                0               0
                        0.246526         25.0236                0               0         0.219083         25.8415                0               0
                        0.941489        -67.9728                0               0         0.077997         69.4092                0               0
75.135                  0.217638         25.2294                0               0         0.249295         24.2679                0               0
                       0.0786993         68.4228                0               0         0.941056        -68.7176                0               0
                        0.249296         24.2683                0               0          0.21765         25.2151                0               0
                        0.941056        -68.7198                0               0        0.0787091         68.4126                0               0
75.18                   0.216123         24.5307                0               0         0.251777         23.4503                0               0
                       0.0793656         67.2842                0               0         0.940586         -69.541                0               0
                        0.251778         23.4507                0               0         0.216136         24.5167                0               0
                        0.940586         -69.543                0               0         0.079374         67.2735                0               0
75.225                  0.214524         23.7618                0               0         0.253973         22.5676                0               0
                       0.0799922         66.0021                0               0         0.940133        -70.4393                0               0
                        0.253974         22.5679                0               0         0.214537         23.7481                0               0
                        0.940133        -70.4413                0               0        0.0799989         65.9908                0               0
75.27                   0.212835         22.9247                0               0          0.25589         21.6178                0               0
                       0.0805852         64.5772                0               0         0.939738         -71.411                0               0
                         0.25589          21.618                0               0         0.212849         22.9114                0               0
                         0.93974        -71.4128                0               0        0.0805899         64.5652                0               0
75.315                   0.21105         22.0212                0               0         0.257535         20.5999                0               0
                       0.0811492         63.0118                0               0         0.939438        -72.4538                0               0
                        0.257535         20.5999                0               0         0.211065         22.0083                0               0
                         0.93944        -72.4555                0               0        0.0811519          62.999                0               0
75.36                    0.20916         21.0532                0               0         0.258918         19.5132                0               0
                       0.0816873         61.3094                0               0         0.939258        -73.5655                0               0
                        0.258917         19.5131                0               0         0.209175         21.0408                0               0
                        0.939261        -73.5671                0               0         0.081688         61.2958                0               0
75.405                  0.207154         20.0227                0               0         0.260047         18.3583                0               0
                       0.0822009         59.4748                0               0         0.939215        -74.7436                0               0
                        0.260047         18.3581                0               0          0.20717         20.0107                0               0
                        0.939218        -74.7452                0               0        0.0821997         59.4603                0               0
75.45                   0.205021         18.9318                0               0         0.260935          17.136                0               0
                       0.0826897         57.5134                0               0         0.939319        -75.9856                0               0
                        0.260935         17.1356                0               0         0.205038         18.9202                0               0
                        0.939322        -75.9871                0               0        0.0826867         57.4982                0               0
75.495                  0.202748         17.7823                0               0         0.261592         15.8477                0               0
                       0.0831518         55.4318                0               0         0.939572        -77.2888                0               0
                        0.261592         15.8474                0               0         0.202765         17.7714                0               0
                        0.939576        -77.2903                0               0        0.0831471         55.4158                0               0
75.54                   0.200322         16.5768                0               0         0.262029         14.4956                0               0
                       0.0835838         53.2365                0               0         0.939972        -78.6506                0               0
                        0.262029         14.4952                0               0          0.20034         16.5663                0               0
                        0.939976        -78.6522                0               0        0.0835776         53.2198                0               0
75.585                   0.19773         15.3175                0               0         0.262257         13.0818                0               0
                       0.0839814         50.9349                0               0          0.94051        -80.0684                0               0
                        0.262256         13.0815                0               0         0.197749         15.3076                0               0
                        0.940513          -80.07                0               0        0.0839737         50.9175                0               0
75.63                   0.194959         14.0072                0               0         0.262285          11.609                0               0
                       0.0843391         48.5344                0               0         0.941172        -81.5394                0               0
                        0.262285         11.6088                0               0         0.194979         13.9979                0               0
                        0.941175        -81.5411                0               0        0.0843301         48.5163                0               0
75.675                  0.191997         12.6487                0               0         0.262125           10.08                0               0
                       0.0846511         46.0425                0               0         0.941943        -83.0611                0               0
                        0.262125           10.08                0               0         0.192019         12.6401                0               0
                        0.941946        -83.0629                0               0        0.0846408         46.0237                0               0
75.72                   0.188833         11.2452                0               0         0.261786         8.49786                0               0
                       0.0849114         43.4669                0               0         0.942805        -84.6308                0               0
                        0.261786         8.49799                0               0         0.188856         11.2373                0               0
                        0.942808        -84.6329                0               0        0.0848999         43.4474                0               0
75.765                  0.185457         9.80031                0               0         0.261278         6.86551                0               0
                        0.085114          40.815                0               0         0.943739        -86.2461                0               0
                        0.261278         6.86579                0               0         0.185481         9.79312                0               0
                        0.943742        -86.2483                0               0        0.0851013         40.7946                0               0
75.81                   0.181861         8.31763                0               0         0.260609         5.18598                0               0
                       0.0852536         38.0942                0               0         0.944727        -87.9043                0               0
                        0.260609         5.18638                0               0         0.181886          8.3112                0               0
                        0.944729        -87.9066                0               0        0.0852396         38.0729                0               0
75.855                  0.178039         6.80118                0               0          0.25979         3.46221                0               0
                       0.0853254         35.3115                0               0         0.945751        -89.6027                0               0
                         0.25979          3.4627                0               0         0.178065         6.79555                0               0
                        0.945754        -89.6052                0               0          0.08531          35.289                0               0
75.9                    0.173987         5.25521                0               0         0.258829         1.69706                0               0
                       0.0853256         32.4736                0               0         0.946798        -91.3388                0               0
                        0.258829         1.69761                0               0         0.174013         5.25042                0               0
                        0.946801        -91.3413                0               0        0.0853088         32.4497                0               0
75.945                  0.169703         3.68413                0               0         0.257736        -0.10671                0               0
                       0.0852519         29.5865                0               0         0.947858        -93.1096                0               0
                        0.257736       -0.106169                0               0         0.169731         3.68022                0               0
                        0.947861        -93.1122                0               0        0.0852334         29.5612                0               0
75.99                   0.165188         2.09251                0               0         0.256521        -1.94646                0               0
                       0.0851027         26.6561                0               0         0.948925        -94.9122                0               0
                        0.256521        -1.94599                0               0         0.165217         2.08955                0               0
                        0.948928        -94.9147                0               0        0.0850824          26.629                0               0
76.035                  0.160445         0.48508                0               0         0.255194        -3.81964                0               0
                        0.084878         23.6874                0               0             0.95        -96.7433                0               0
                        0.255194        -3.81929                0               0         0.160476         0.48311                0               0
                        0.950003        -96.7458                0               0        0.0848558         23.6582                0               0
76.08                    0.15548        -1.13334                0               0         0.253765        -5.72374                0               0
                        0.084579         20.6849                0               0         0.951089        -98.5995                0               0
                        0.253765        -5.72355                0               0         0.155512        -1.13425                0               0
                        0.951092        -98.6018                0               0        0.0845548         20.6535                0               0
76.125                  0.150299        -2.75775                0               0         0.252246        -7.65619                0               0
                       0.0842077         17.6527                0               0         0.952201        -100.477                0               0
                        0.252246        -7.65621                0               0         0.150332        -2.75754                0               0
                        0.952204        -100.479                0               0        0.0841815         17.6188                0               0
76.17                   0.144912        -4.38295                0               0         0.250646        -9.61429                0               0
                       0.0837673         14.5945                0               0          0.95335        -102.371                0               0
                        0.250647        -9.61454                0               0         0.144946        -4.38152                0               0
                        0.953352        -102.373                0               0        0.0837391         14.5579                0               0
76.215                  0.139328         -6.0033                0               0         0.248979        -11.5951                0               0
                       0.0832611         11.5138                0               0         0.954549        -104.278                0               0
                        0.248979        -11.5955                0               0         0.139363        -6.00059                0               0
                         0.95455        -104.279                0               0        0.0832312         11.4744                0               0
76.26                   0.133558        -7.61257                0               0         0.247254        -13.5952                0               0
                       0.0826928         8.41419                0               0         0.955808        -106.192                0               0
                        0.247254        -13.5958                0               0         0.133594        -7.60847                0               0
                        0.955808        -106.193                0               0        0.0826615         8.37193                0               0
76.305                  0.127613        -9.20347                0               0         0.245481        -15.6107                0               0
                       0.0820655         5.29962                0               0         0.957129        -108.108                0               0
                        0.245482        -15.6114                0               0         0.127651        -9.19787                0               0
                        0.957129        -108.109                0               0        0.0820331         5.25454                0               0
76.35                   0.121507        -10.7672                0               0         0.243669         -17.637                0               0
                       0.0813815         2.17454                0               0         0.958502        -110.022                0               0
                         0.24367        -17.6377                0               0         0.121546          -10.76                0               0
                        0.958502        -110.024                0               0        0.0813485         2.12675                0               0
76.395                  0.115252        -12.2926                0               0         0.241824        -19.6687                0               0
                       0.0806416       -0.955864                0               0         0.959904         -111.93                0               0
                        0.241825        -19.6693                0               0         0.115293        -12.2836                0               0
                        0.959903        -111.932                0               0        0.0806085        -1.00618                0               0
76.44                   0.108862        -13.7655                0               0         0.239949           -21.7                0               0
                       0.0798447         -4.0856                0               0         0.961292        -113.829                0               0
                         0.23995        -21.7003                0               0         0.108904        -13.7546                0               0
                        0.961293         -113.83                0               0        0.0798119        -4.13822                0               0
76.485                  0.102352        -15.1672                0               0         0.238044         -23.724                0               0
                       0.0789876          -7.208                0               0          0.96261        -115.716                0               0
                        0.238044         -23.724                0               0         0.102395        -15.1542                0               0
                        0.962611        -115.718                0               0        0.0789556        -7.26269                0               0
76.53                  0.0957373         -16.473                0               0         0.236104        -25.7338                0               0
                       0.0780655        -10.3159                0               0         0.963784         -117.59                0               0
                        0.236103        -25.7334                0               0        0.0957819        -16.4577                0               0
                        0.963786        -117.593                0               0        0.0780345        -10.3725                0               0
76.575                 0.0890374        -17.6501                0               0         0.234123        -27.7221                0               0
                       0.0770719        -13.4018                0               0         0.964731        -119.453                0               0
                        0.234121        -27.7212                0               0        0.0890836        -17.6323                0               0
                        0.964735        -119.456                0               0         0.077042        -13.4603                0               0
76.62                  0.0822738         -18.655                0               0          0.23209        -29.6818                0               0
                           0.076        -16.4586                0               0         0.965364        -121.305                0               0
                        0.232087        -29.6804                0               0        0.0823217        -18.6344                0               0
                        0.965367        -121.309                0               0        0.0759713        -16.5189                0               0
76.665                  0.075473         -19.429                0               0         0.229996        -31.6061                0               0
                       0.0748438        -19.4791                0               0         0.965591        -123.148                0               0
                        0.229991        -31.6042                0               0        0.0755226        -19.4054                0               0
                        0.965593        -123.152                0               0        0.0748162        -19.5416                0               0
76.71                  0.0686677        -19.8926                0               0         0.227831        -33.4886                0               0
                        0.073599         -22.457                0               0          0.96533        -124.982                0               0
                        0.227824        -33.4863                0               0        0.0687193        -19.8657                0               0
                        0.965329        -124.987                0               0        0.0735725        -22.5221                0               0
76.755                 0.0618996        -19.9364                0               0         0.225588        -35.3239                0               0
                       0.0722643        -25.3862                0               0          0.96451        -126.809                0               0
                         0.22558        -35.3213                0               0        0.0619534         -19.906                0               0
                        0.964505        -126.815                0               0        0.0722386        -25.4543                0               0
76.8                    0.055223        -19.4077                0               0         0.223265        -37.1071                0               0
                       0.0708416        -28.2611                0               0         0.963076        -128.628                0               0
                        0.223257        -37.1042                0               0        0.0552793        -19.3737                0               0
                        0.963067        -128.633                0               0        0.0708166        -28.3329                0               0
76.845                 0.0487113        -18.0886                0               0         0.220866        -38.8341                0               0
                       0.0693367        -31.0769                0               0         0.960999        -130.437                0               0
                        0.220858        -38.8312                0               0        0.0487706        -18.0516                0               0
                        0.960986        -130.442                0               0        0.0693123        -31.1529                0               0
76.89                  0.0424668         -15.666                0               0         0.218399        -40.5019                0               0
                       0.0677589        -33.8291                0               0         0.958274        -132.233                0               0
                        0.218391         -40.499                0               0        0.0425295         -15.627                0               0
                        0.958258        -132.238                0               0        0.0677349        -33.9099                0               0
76.935                 0.0366378        -11.6915                0               0         0.215878         -42.108                0               0
                       0.0661201        -36.5141                0               0         0.954921        -134.013                0               0
                        0.215871        -42.1053                0               0        0.0367045        -11.6541                0               0
                        0.954904        -134.018                0               0        0.0660963        -36.6002                0               0
76.98                  0.0314455        -5.56164                0               0         0.213322        -43.6513                0               0
                       0.0644343        -39.1294                0               0         0.950985        -135.775                0               0
                        0.213317        -43.6488                0               0        0.0315162        -5.53268                0               0
                        0.950968        -135.779                0               0        0.0644107        -39.2211                0               0
77.025                 0.0272155         3.38529                0               0         0.210755        -45.1314                0               0
                       0.0627167        -41.6734                0               0         0.946528        -137.514                0               0
                        0.210751        -45.1293                0               0        0.0272896         3.39265                0               0
                        0.946513        -137.517                0               0        0.0626931        -41.7711                0               0
77.07                  0.0243771         15.4198                0               0         0.208201        -46.5492                0               0
                       0.0609826         -44.146                0               0         0.941623        -139.228                0               0
                        0.208198        -46.5474                0               0        0.0244515         15.3878                0               0
                        0.941611        -139.231                0               0        0.0609589        -44.2498                0               0
77.115                 0.0233344         29.5788                0               0         0.205685        -47.9067                0               0
                       0.0592467        -46.5484                0               0         0.936352        -140.915                0               0
                        0.205683        -47.9052                0               0        0.0234038         29.4973                0               0
                        0.936342        -140.918                0               0        0.0592229        -46.6584                0               0
77.16                   0.024194         43.5262                0               0         0.203231        -49.2067                0               0
                       0.0575225        -48.8835                0               0         0.930796        -142.574                0               0
                        0.203229        -49.2057                0               0        0.0242534         43.4057                0               0
                        0.930789        -142.576                0               0        0.0574985        -48.9997                0               0
77.205                 0.0266443         55.1349                0               0         0.200861        -50.4535                0               0