! TOUCHSTONE file generated by CST MICROWAVE STUDIO
! Date and time: Mon Jun 21 17:06:52 2021
! Project name: HIPS_d_sweep.cst
! Parameters = {a=0.735; b=0.393; d=20.2714; fmax=120; fmin=75; phi=0; theta=0}
! Header version: 2018
! Port assignment regex: !\s*Touchstone port\s*([0-9]+)\s*=\s*(CST MWS port|CST DS port)\s*([0-9]+|Zmin|Zmax)\s*\(\"(.*)\"\)(\s*mode\s*([0-9]+))?.*
! Touchstone port assignment:
! Touchstone port 1 = CST MWS port Zmin ("") mode 1
! Touchstone port 2 = CST MWS port Zmin ("") mode 2
! Touchstone port 3 = CST MWS port Zmax ("") mode 1
! Touchstone port 4 = CST MWS port Zmax ("") mode 2
! S-Parameters are not renormalized. Unphysical impedance of 0 will be written to the file.
# GHz S MA R 0
75                      0.213599         21.6096                0               0         0.239219         20.8082                0               0
                       0.0783584         61.3061                0               0         0.943921        -72.4556                0               0
                         0.23922         20.8081                0               0         0.213671         21.5931                0               0
                        0.943933        -72.4533                0               0        0.0782845         61.2362                0               0
75.045                  0.212251         21.1017                0               0         0.242476         20.1165                0               0
                       0.0791471         60.4945                0               0          0.94429        -73.0677                0               0
                        0.242477         20.1168                0               0         0.212324         21.0845                0               0
                          0.9443        -73.0651                0               0        0.0790748         60.4252                0               0
75.09                   0.210724         20.5501                0               0          0.24555         19.4013                0               0
                       0.0798683         59.6194                0               0          0.94403        -73.7443                0               0
                        0.245551         19.4017                0               0         0.210796         20.5321                0               0
                         0.94404        -73.7416                0               0        0.0797979         59.5509                0               0
75.135                  0.209022         19.9506                0               0         0.248413         18.6564                0               0
                       0.0805176         58.6702                0               0         0.943246        -74.4912                0               0
                        0.248414         18.6567                0               0         0.209094         19.9318                0               0
                        0.943256        -74.4887                0               0        0.0804493         58.6026                0               0
75.18                   0.207151         19.2996                0               0         0.251038         17.8755                0               0
                       0.0810924         57.6359                0               0         0.942056         -75.313                0               0
                         0.25104         17.8754                0               0         0.207223         19.2798                0               0
                        0.942068        -75.3108                0               0        0.0810263         57.5692                0               0
75.225                  0.205119         18.5937                0               0         0.253404         17.0512                0               0
                       0.0815924         56.5051                0               0         0.940587        -76.2127                0               0
                        0.253407         17.0506                0               0         0.205189         18.5731                0               0
                        0.940602        -76.2107                0               0        0.0815286         56.4395                0               0
75.27                    0.20293         17.8306                0               0         0.255492         16.1764                0               0
                       0.0820196         55.2669                0               0         0.938966        -77.1914                0               0
                        0.255497         16.1752                0               0            0.203         17.8089                0               0
                        0.938986        -77.1898                0               0        0.0819582         55.2024                0               0
75.315                  0.200592          17.008                0               0         0.257292         15.2439                0               0
                       0.0823785         53.9111                0               0         0.937317         -78.249                0               0
                          0.2573          15.242                0               0         0.200661         16.9852                0               0
                        0.937342        -78.2477                0               0        0.0823195         53.8478                0               0
75.36                   0.198109         16.1247                0               0         0.258798         14.2466                0               0
                       0.0826755         52.4287                0               0          0.93575        -79.3838                0               0
                        0.258809         14.2442                0               0         0.198176         16.1007                0               0
                        0.935781        -79.3828                0               0         0.082619         52.3665                0               0
75.405                  0.195485         15.1796                0               0          0.26001         13.1785                0               0
                        0.082919         50.8122                0               0         0.934363        -80.5929                0               0
                        0.260025         13.1755                0               0         0.195551         15.1543                0               0
                          0.9344        -80.5921                0               0        0.0828648          50.751                0               0
75.45                   0.192722         14.1725                0               0         0.260937         12.0341                0               0
                        0.083118         49.0563                0               0         0.933236        -81.8726                0               0
                        0.260955         12.0307                0               0         0.192787         14.1457                0               0
                        0.933279         -81.872                0               0        0.0830663         48.9961                0               0
75.495                   0.18982         13.1033                0               0         0.261589         10.8096                0               0
                       0.0832819         47.1577                0               0         0.932429        -83.2183                0               0
                        0.261611         10.8058                0               0         0.189883         13.0749                0               0
                        0.932479        -83.2178                0               0        0.0832328         47.0983                0               0
75.54                   0.186778         11.9726                0               0         0.261982         9.50206                0               0
                       0.0834198         45.1156                0               0         0.931986        -84.6253                0               0
                        0.262008         9.49806                0               0          0.18684         11.9425                0               0
                         0.93204        -84.6248                0               0        0.0833734         45.0569                0               0
75.585                  0.183592         10.7813                0               0         0.262136         8.11047                0               0
                       0.0835392         42.9313                0               0         0.931931        -86.0885                0               0
                        0.262164          8.1064                0               0         0.183652         10.7492                0               0
                        0.931988         -86.088                0               0        0.0834955         42.8731                0               0
75.63                   0.180257         9.53056                0               0         0.262069         6.63514                0               0
                       0.0836457         40.6083                0               0         0.932271        -87.6027                0               0
                        0.262099         6.63114                0               0         0.180315         9.49643                0               0
                         0.93233        -87.6022                0               0         0.083605         40.5506                0               0
75.675                  0.176766         8.22205                0               0         0.261802         5.07791                0               0
                       0.0837426         38.1521                0               0         0.933001        -89.1633                0               0
                        0.261833         5.07409                0               0         0.176823         8.18564                0               0
                        0.933061        -89.1627                0               0        0.0837051         38.0946                0               0
75.72                   0.173112         6.85772                0               0         0.261353           3.442                0               0
                       0.0838303         35.5695                0               0         0.934102        -90.7656                0               0
                        0.261385         3.43845                0               0         0.173167         6.81882                0               0
                        0.934162        -90.7649                0               0        0.0837962         35.5121                0               0
75.765                  0.169285         5.43992                0               0         0.260739         1.73185                0               0
                       0.0839063         32.8688                0               0         0.935547        -92.4055                0               0
                        0.260771         1.72865                0               0         0.169339         5.39831                0               0
                        0.935605        -92.4045                0               0        0.0838759         32.8114                0               0
75.81                   0.165275         3.97142                0               0         0.259976      -0.0470781                0               0
                       0.0839654         30.0589                0               0         0.937298         -94.079                0               0
                        0.260006      -0.0498885                0               0         0.165328         3.92686                0               0
                        0.937353        -94.0779                0               0        0.0839391         30.0015                0               0
75.855                  0.161074         2.45551                0               0         0.259075        -1.88849                0               0
                       0.0840001         27.1497                0               0         0.939314        -95.7827                0               0
                        0.259103        -1.89088                0               0         0.161125         2.40773                0               0
                        0.939364        -95.7815                0               0         0.083978         27.0922                0               0
75.9                     0.15667         0.89606                0               0         0.258046        -3.78547                0               0
                       0.0840006         24.1514                0               0         0.941547        -97.5135                0               0
                        0.258072        -3.78744                0               0         0.156719        0.844772                0               0
                        0.941592        -97.5121                0               0        0.0839829         24.0938                0               0
75.945                  0.152055       -0.702369                0               0         0.256897        -5.73072                0               0
                       0.0839557         21.0743                0               0         0.943947        -99.2686                0               0
                        0.256919        -5.73227                0               0         0.152103       -0.757489                0               0
                        0.943987        -99.2671                0               0        0.0839427         21.0166                0               0
75.99                   0.147221        -2.33437                0               0         0.255632        -7.71666                0               0
                       0.0838532         17.9291                0               0         0.946463        -101.046                0               0
                         0.25565        -7.71781                0               0         0.147267        -2.39368                0               0
                        0.946497        -101.044                0               0         0.083845         17.8714                0               0
76.035                   0.14216        -3.99353                0               0         0.254256        -9.73567                0               0
                       0.0836809         14.7264                0               0         0.949042        -102.842                0               0
                         0.25427        -9.73643                0               0         0.142205        -4.05745                0               0
                        0.949069         -102.84                0               0        0.0836775         14.6687                0               0
76.08                    0.13687        -5.67223                0               0         0.252771        -11.7802                0               0
                       0.0834265         11.4768                0               0         0.951631        -104.656                0               0
                         0.25278        -11.7806                0               0         0.136913        -5.74122                0               0
                        0.951651        -104.654                0               0         0.083428         11.4193                0               0
76.125                  0.131346        -7.36139                0               0         0.251179        -13.8427                0               0
                       0.0830792         8.19119                0               0         0.954178        -106.486                0               0
                        0.251184        -13.8428                0               0         0.131388        -7.43598                0               0
                         0.95419        -106.484                0               0        0.0830855         8.13389                0               0
76.17                   0.125591        -9.05013                0               0         0.249483        -15.9162                0               0
                       0.0826293         4.87996                0               0         0.956632        -108.329                0               0
                        0.249484         -15.916                0               0         0.125631        -9.13096                0               0
                        0.956637        -108.327                0               0        0.0826404         4.82299                0               0
76.215                  0.119609        -10.7254                0               0         0.247685        -17.9938                0               0
                       0.0820696         1.55357                0               0         0.958944        -110.184                0               0
                        0.247682        -17.9933                0               0         0.119647        -10.8132                0               0
                        0.958943        -110.182                0               0        0.0820852         1.49705                0               0
76.26                   0.113408        -12.3715                0               0         0.245788        -20.0691                0               0
                       0.0813947        -1.77782                0               0         0.961068         -112.05                0               0
                        0.245781        -20.0683                0               0         0.113443        -12.4671                0               0
                        0.961061        -112.048                0               0        0.0814148        -1.83375                0               0
76.305                     0.107        -13.9693                0               0         0.243796        -22.1361                0               0
                       0.0806022        -5.10438                0               0         0.962961        -113.924                0               0
                        0.243785         -22.135                0               0         0.107032        -14.0737                0               0
                        0.962948        -113.922                0               0        0.0806264        -5.15958                0               0
76.35                   0.100402        -15.4951                0               0         0.241713        -24.1893                0               0
                        0.079692        -8.41678                0               0         0.964582        -115.805                0               0
                        0.241699        -24.1879                0               0         0.100431        -15.6096                0               0
                        0.964563        -115.802                0               0        0.0797201        -8.47111                0               0
76.395                 0.0936344        -16.9195                0               0         0.239546        -26.2235                0               0
                       0.0786668        -11.7063                0               0         0.965895        -117.691                0               0
                        0.239529        -26.2219                0               0        0.0936596        -17.0456                0               0
                        0.965871        -117.688                0               0        0.0786985        -11.7596                0               0
76.44                  0.0867241         -18.205                0               0           0.2373        -28.2342                0               0
                       0.0775316        -14.9648                0               0         0.966868         -119.58                0               0
                        0.237281        -28.2323                0               0         0.086745        -18.3446                0               0
                         0.96684        -119.577                0               0        0.0775665        -15.0169                0               0
76.485                  0.079702        -19.3033                0               0         0.234983        -30.2173                0               0
                       0.0762933        -18.1853                0               0         0.967472         -121.47                0               0
                        0.234963        -30.2152                0               0        0.0797177        -19.4586                0               0
                         0.96744        -121.467                0               0        0.0763313         -18.236                0               0
76.53                  0.0726048        -20.1495                0               0         0.232605        -32.1692                0               0
                       0.0749608        -21.3614                0               0         0.967684         -123.36                0               0
                        0.232583        -32.1669                0               0        0.0726142        -20.3236                0               0
                         0.96765        -123.357                0               0        0.0750015        -21.4105                0               0
76.575                 0.0654759        -20.6554                0               0         0.230173        -34.0868                0               0
                       0.0735442        -24.4878                0               0         0.967485        -125.247                0               0
                        0.230151        -34.0843                0               0        0.0654774        -20.8519                0               0
                         0.96745        -125.244                0               0        0.0735873        -24.5352                0               0
76.62                  0.0583673        -20.6956                0               0         0.227697        -35.9673                0               0
                       0.0720545        -27.5604                0               0         0.966863        -127.129                0               0
                        0.227675        -35.9646                0               0        0.0583589        -20.9193                0               0
                        0.966827        -127.126                0               0        0.0720997        -27.6059                0               0
76.665                 0.0513433         -20.087                0               0         0.225188        -37.8085                0               0
                        0.070503        -30.5759                0               0          0.96581        -129.005                0               0
                        0.225166        -37.8057                0               0        0.0513224         -20.344                0               0
                        0.965773        -129.001                0               0        0.0705501        -30.6193                0               0
76.71                  0.0444885        -18.5525                0               0         0.222655        -39.6086                0               0
                       0.0689015        -33.5322                0               0         0.964322        -130.871                0               0
                        0.222633        -39.6057                0               0        0.0444514        -18.8502                0               0
                        0.964285        -130.868                0               0        0.0689502        -33.5733                0               0
76.755                 0.0379223        -15.6611                0               0         0.220108        -41.3662                0               0
                       0.0672611        -36.4281                0               0         0.962402        -132.727                0               0
                        0.220088        -41.3632                0               0        0.0378635        -16.0074                0               0
                        0.962366        -132.724                0               0        0.0673113        -36.4667                0               0
76.8                   0.0318276        -10.7381                0               0         0.217559        -43.0801                0               0
                       0.0655929        -39.2632                0               0         0.960057        -134.571                0               0
                         0.21754        -43.0771                0               0        0.0317394        -11.1379                0               0
                        0.960023        -134.567                0               0        0.0656443        -39.2992                0               0
76.845                  0.026503        -2.78648                0               0         0.215016        -44.7498                0               0
                       0.0639071        -42.0383                0               0         0.957299        -136.399                0               0
                        0.214998        -44.7468                0               0        0.0263759         -3.2287                0               0
                        0.957268        -136.395                0               0        0.0639595        -42.0714                0               0
76.89                  0.0224338         9.31875                0               0         0.212489        -46.3749                0               0
                       0.0622129        -44.7546                0               0         0.954147        -138.211                0               0
                        0.212473        -46.3719                0               0        0.0222589         8.89022                0               0
                        0.954118        -138.207                0               0        0.0622662        -44.7847                0               0
76.935                 0.0202776         25.6498                0               0         0.209988        -47.9552                0               0
                       0.0605189        -47.4142                0               0          0.95062        -140.005                0               0
                        0.209973        -47.9523                0               0        0.0200574          25.357                0               0
                        0.950594        -140.001                0               0        0.0605731        -47.4411                0               0
76.98                  0.0205079         43.4059                0               0         0.207521         -49.491                0               0
                       0.0588326        -50.0197                0               0         0.946744        -141.778                0               0
                        0.207508        -49.4882                0               0        0.0202648         43.3455                0               0
                        0.946721        -141.774                0               0        0.0588875        -50.0432                0               0
77.025                 0.0229143         58.4411                0               0         0.205096        -50.9827                0               0
                       0.0571607        -52.5744                0               0         0.942547        -143.531                0               0
                        0.205086        -50.9801                0               0        0.0226752         58.5711                0               0
                        0.942528        -143.527                0               0        0.0572161        -52.5943                0               0
77.07                  0.0267891         69.1155                0               0         0.202723        -52.4311                0               0
                       0.0555087        -55.0818                0               0         0.938062         -145.26                0               0
                        0.202714        -52.4287                0               0        0.0265669         69.3378                0               0
                        0.938046        -145.257                0               0        0.0555645        -55.0979                0               0
77.115                 0.0314799         76.1137                0               0         0.200407        -53.8371                0               0
                       0.0538814        -57.5459                0               0         0.933321        -146.966                0               0
                          0.2004         -53.835                0               0        0.0312765         76.3641                0               0
                        0.933308        -146.962                0               0        0.0539377        -57.5582                0               0
77.16                  0.0365725         80.5758                0               0         0.198156        -55.2019                0               0
                       0.0522829        -59.9712                0               0         0.928361        -148.647                0               0
                        0.198151        -55.2001                0               0        0.0363857         80.8255                0               0
                        0.928351        -148.643                0               0        0.0523395        -59.9793                0               0
77.205                 0.0418316         83.3731                0               0         0.195976        -56.5267                0               0